User input:
--------------------------------------------------------------
$rem
jobtype opt
basis 6-311g*+
exchange b3lyp
correlation lyp
$end

$molecule
0 1
H         -1.44362        1.63100        1.19381
C         -1.55423        1.32108        0.13478
I         -2.73407        2.41948       -0.69686
I         -2.16448       -0.38562        0.06457
I          0.05489        1.42223       -0.69629
$end

--------------------------------------------------------------

   11  -20797.0416316765      2.17E-09 Convergence criterion met
 Total energy in the final basis set = -20797.0416316765
   10  -20797.1055766373      5.14E-09 Convergence criterion met
 Total energy in the final basis set = -20797.1055766373
   10  -20797.1552550926      5.13E-09 Convergence criterion met
 Total energy in the final basis set = -20797.1552550926
   10  -20797.1919632511      5.34E-09 Convergence criterion met
 Total energy in the final basis set = -20797.1919632511
   10  -20797.2172784592      6.78E-09 Convergence criterion met
 Total energy in the final basis set = -20797.2172784592
   10  -20797.2338675405      8.18E-09 Convergence criterion met
 Total energy in the final basis set = -20797.2338675405
   10  -20797.2446375552      6.84E-09 Convergence criterion met
 Total energy in the final basis set = -20797.2446375552
   10  -20797.2513921294      7.39E-09 Convergence criterion met
 Total energy in the final basis set = -20797.2563337974
   10  -20797.2564929133      5.16E-09 Convergence criterion met
 Total energy in the final basis set = -20797.2564929133
   10  -20797.2565801092      5.67E-09 Convergence criterion met
 Total energy in the final basis set = -20797.2565801092
    9  -20797.2566001234      6.23E-09 Convergence criterion met
 Total energy in the final basis set = -20797.2566001234
    9  -20797.2566020402      9.99E-10 Convergence criterion met
 Total energy in the final basis set = -20797.2566020402
    7  -20797.2566021283      5.09E-09 Convergence criterion met
 Total energy in the final basis set = -20797.2566021283
 Final energy is   -20797.2566021283
 **  OPTIMIZATION CONVERGED  **
 Total job time:  1213.28s(wall), 1206.62s(cpu)
        *  Thank you very much for using Q-Chem.  Have a nice day.  *

User input:
--------------------------------------------------------------

$rem
jobtype         sp
moprop		2
basis           6-311G*
correlation     CIS(D)
cc_trans_prop   true
$end

$molecule
READ
$end

$fdpfreq
0.0
au
$end
--------------------------------------------------------------

       Standard Nuclear Orientation (Angstroms)
    I     Atom         X            Y            Z
 ----------------------------------------------------
    1      H       0.004324    -0.009361    -1.628075
    2      C      -0.000662    -0.011734    -0.547887
    3      I      -1.778294    -1.147651     0.031074
    4      I      -0.112794     2.102928     0.030577
    5      I       1.891082    -0.953773     0.031093
 ----------------------------------------------------

    8  -20788.8642475763      5.40E-06 Convergence criterion met
 Total energy in the final basis set = -20788.8642475763
        MP2         total energy =    -20791.1442219266 au

                    Orbital Energies (a.u.)
 --------------------------------------------------------------

 Alpha MOs
 -- Occupied --
***********************-180.885-180.885-180.884-169.692-169.691
*******-169.691-169.691-169.690-169.690-169.690-169.690 -37.939
-37.939 -37.938 -33.127 -33.127 -33.127 -33.122 -33.122 -33.122
-33.122 -33.122 -33.121 -24.312 -24.311 -24.311 -24.310 -24.310
-24.310 -24.310 -24.309 -24.309 -24.305 -24.305 -24.305 -24.305
-24.304 -24.304 -11.393  -7.256  -7.255  -7.255  -5.490  -5.489
 -5.489  -5.477  -5.477  -5.477  -5.477  -5.476  -5.476  -2.413
 -2.413  -2.412  -2.408  -2.408  -2.407  -2.407  -2.407  -2.407
 -2.393  -2.393  -2.393  -2.393  -2.392  -2.392  -1.033  -0.855
 -0.853  -0.775  -0.589  -0.508  -0.506  -0.402  -0.401  -0.387
 -0.377  -0.376  -0.363

          Ground-State Mulliken Net Atomic Charges

     Atom                 Charge (a.u.)
  ----------------------------------------
      1 H                     0.352904
      2 C                    -0.775075
      3 I                     0.143436
      4 I                     0.137813
      5 I                     0.140921
  ----------------------------------------
  Sum of atomic charges =     0.000000

                    Cartesian Multipole Moments
 -----------------------------------------------------------------
    Charge (ESU x 10^10)
                 0.0000
    Dipole Moment (Debye)
         X      -0.0099      Y      -0.0280      Z      -0.8037
       Tot       0.8042
    Quadrupole Moments (Debye-Ang)
        XX     -91.0140     XY       0.0307     YY     -91.2589
        XZ      -0.0145     YZ       0.0249     ZZ     -92.1397
    Octapole Moments (Debye-Ang^2)
       XXX       2.4114    XXY     -15.4856    XYY      -2.5228
       YYY      15.5573    XXZ       8.0943    XYZ       0.0144
       YYZ       7.9818    XZZ      -0.0039    YZZ      -0.0269
       ZZZ      -0.6522
    Hexadecapole Moments (Debye-Ang^3)
      XXXX   -1212.7057   XXXY       0.3270   XXYY    -402.8335
      XYYY       0.0602   YYYY   -1199.9129   XXXZ       1.7749
      XXYZ     -11.3985   XYYZ      -1.8522   YYYZ      11.3635
      XXZZ    -245.2983   XYZZ       0.0396   YYZZ    -242.4633

 Total job time:  265.74s(wall), 261.14s(cpu)
        *  Thank you very much for using Q-Chem.  Have a nice day.  *
