User input:
--------------------------------------------------------------
$rem
jobtype opt
basis 6-311g**++
exchange b3lyp
correlation lyp
$end

$molecule
0 1
C
O C 1.0
$end

--------------------------------------------------------------

    9    -113.2985805011      6.54E-09 Convergence criterion met
 Total energy in the final basis set = -113.2985805011
   10    -113.3470185008      3.63E-10 Convergence criterion met
 Total energy in the final basis set = -113.3470185008
    9    -113.3487451380      1.72E-09 Convergence criterion met
 Total energy in the final basis set = -113.3487451380
    9    -113.3490510757      1.33E-09 Convergence criterion met
 Total energy in the final basis set = -113.3490510757
    8    -113.3490553842      1.06E-09 Convergence criterion met
 Total energy in the final basis set = -113.3490553842
 Final energy is   -113.349055384205
 **  OPTIMIZATION CONVERGED  **
 Total job time:  5.30s(wall), 4.41s(cpu)
        *  Thank you very much for using Q-Chem.  Have a nice day.  *

User input:
--------------------------------------------------------------

$rem
jobtype         sp
moprop		2
basis           6-31G
correlation     CIS(D)
cc_trans_prop   true
print_orbitals true
print_general_basis true
molden_format  true
$end

$molecule
READ
$end

$fdpfreq
0.0
au
$end
--------------------------------------------------------------

       Standard Nuclear Orientation (Angstroms)
    I     Atom         X            Y            Z
 ----------------------------------------------------
    1      C       0.000000     0.000000    -0.644437
    2      O       0.000000     0.000000     0.483327
 ----------------------------------------------------

    8    -112.6672013340      2.71E-06 Convergence criterion met
 Total energy in the final basis set = -112.6672013340
        MP2         total energy =      -112.8793252985 au

                    Orbital Energies (a.u.)
 --------------------------------------------------------------

 Alpha MOs
 -- Occupied --
-20.686 -11.396  -1.562  -0.797  -0.643  -0.643  -0.551

          Ground-State Mulliken Net Atomic Charges

     Atom                 Charge (a.u.)
  ----------------------------------------
      1 C                     0.345925
      2 O                    -0.345925
  ----------------------------------------
  Sum of atomic charges =     0.000000

                    Cartesian Multipole Moments
 -----------------------------------------------------------------
    Charge (ESU x 10^10)
                 0.0000
    Dipole Moment (Debye)
         X       0.0000      Y       0.0000      Z      -0.5587
       Tot       0.5587
    Quadrupole Moments (Debye-Ang)
        XX      -9.9881     XY       0.0000     YY      -9.9881
        XZ       0.0000     YZ       0.0000     ZZ     -12.8578
    Octapole Moments (Debye-Ang^2)
       XXX       0.0000    XXY       0.0000    XYY       0.0000
       YYY       0.0000    XXZ       0.7831    XYZ       0.0000
       YYZ       0.7831    XZZ       0.0000    YZZ       0.0000
       ZZZ       5.3276
    Hexadecapole Moments (Debye-Ang^3)
      XXXX      -7.9966   XXXY       0.0000   XXYY      -2.6655
      XYYY       0.0000   YYYY      -7.9966   XXXZ       0.0000
      XXYZ       0.0000   XYYZ       0.0000   YYYZ       0.0000
      XXZZ      -6.5891   XYZZ       0.0000   YYZZ      -6.5891

 Total job time:  1.11s(wall), 0.36s(cpu)
        *  Thank you very much for using Q-Chem.  Have a nice day.  *
