User input:
--------------------------------------------------------------
$comment
DFT(BP86)/TZ(d,p) SP  biphenyl
Angle: 65.0
$end

$rem
JOBTYPE SP
EXCHANGE B
CORRELATION P86
BASIS TZ(d,p)
UNRESTRICTED TRUE
PRINT_ORBITALS FALSE
MAX_SCF_CYCLES 100
$end

$molecule
1 2
C	-1.481133	-1.211445	0.0
C	-2.878369	-1.221831	0.0
C	-0.747319	-0.004143	0.0
C	-3.595846	-0.020564	0.0
C	-2.891793	1.188615	0.0
C	-1.494461	1.195084	0.0
H	-0.988428	2.160976	0.0
H	-3.432896	2.137017	0.0
H	-4.687552	-0.02652	0.0
H	-0.962498	-2.170451	0.0
H	-3.408061	-2.176748	0.0
C	2.88784750425	-0.493827099742	-1.09117719963
C	1.4905401012	-0.500826139702	-1.09040327118
C	3.59551750183	0.0193573123292	0.00134160952004
C	0.747016	0.003728	0.0
C	1.48447589424	0.516221151736	1.09069992698
C	2.88171219242	0.524872861953	1.09347091533
H	3.42608972423	-0.892996385626	-1.95326630708
H	0.981911144358	-0.910397991085	-1.96297556637
H	3.41450173933	0.930206991715	1.9566826086
H	0.968767412795	0.91991977363	1.96224756349
H	4.68722317618	0.0252012854299	0.00154257428494
$end
--------------------------------------------------------------

       Standard Nuclear Orientation (Angstroms)
    I     Atom         X            Y            Z
 ----------------------------------------------------
    1      C       1.487635    -1.014555    -0.646215
    2      C       2.884907    -1.016707    -0.647849
    3      C       0.747184     0.000190     0.000382
    4      C       3.595759    -0.000188    -0.000395
    5      C       2.885058     1.016280     0.647294
    6      C       1.487712     1.015128     0.646823
    7      H       0.976368     1.827349     1.164357
    8      H       3.420931     1.818703     1.158388
    9      H       4.687481    -0.000049    -0.000512
   10      H       0.974288    -1.825815    -1.162942
   11      H       3.419848    -1.819560    -1.159418
   12      C      -2.885057    -1.016277     0.647306
   13      C      -1.487733    -1.015156     0.646839
   14      C      -3.595716     0.000192    -0.000388
   15      C      -0.747171    -0.000239     0.000391
   16      C      -1.487615     1.014529    -0.646225
   17      C      -2.884878     1.016707    -0.647860
   18      H      -3.420957    -1.818670     1.158398
   19      H      -0.976718    -1.827005     1.164140
   20      H      -3.420029     1.819838    -1.159611
   21      H      -0.974276     1.825718    -1.162924
   22      H      -4.687437     0.000066    -0.000501
 ----------------------------------------------------

   23    -463.1306553544      6.64E-06 Convergence criterion met
 Total energy in the final basis set = -463.1306553544

                    Orbital Energies (a.u.)
 --------------------------------------------------------------

 Alpha MOs
 -- Occupied --
-10.115 -10.115 -10.091 -10.091 -10.085 -10.085 -10.085 -10.084
-10.077 -10.077 -10.077 -10.077  -0.974  -0.951  -0.888  -0.850
 -0.846  -0.836  -0.741  -0.725  -0.712  -0.695  -0.649  -0.620
 -0.589  -0.584  -0.579  -0.560  -0.549  -0.540  -0.538  -0.512
 -0.503  -0.495  -0.474  -0.469  -0.468  -0.423  -0.403  -0.402
 -0.400

 Beta MOs
 -- Occupied --
-10.112 -10.112 -10.088 -10.088 -10.084 -10.084 -10.084 -10.084
-10.077 -10.077 -10.077 -10.077  -0.969  -0.947  -0.882  -0.848
 -0.845  -0.830  -0.737  -0.722  -0.709  -0.692  -0.647  -0.618
 -0.587  -0.582  -0.575  -0.558  -0.546  -0.539  -0.538  -0.503
 -0.494  -0.493  -0.472  -0.467  -0.467  -0.409  -0.400  -0.397

          Ground-State Mulliken Net Atomic Charges

     Atom                 Charge (a.u.)    Spin (a.u.)
  --------------------------------------------------------
      1 C                    -0.156232       0.053402
      2 C                    -0.117459      -0.001196
      3 C                     0.075222       0.181540
      4 C                    -0.077102       0.231966
      5 C                    -0.117832       0.000831
      6 C                    -0.156141       0.051026
      7 H                     0.207783      -0.003071
      8 H                     0.210410      -0.000350
      9 H                     0.212574      -0.011206
     10 H                     0.207741      -0.003280
     11 H                     0.210459      -0.000178
     12 C                    -0.117598       0.001510
     13 C                    -0.155921       0.050405
     14 C                    -0.076683       0.232420
     15 C                     0.075387       0.181746
     16 C                    -0.156222       0.054439
     17 C                    -0.117244      -0.001891
     18 H                     0.210405      -0.000410
     19 H                     0.207664      -0.003020
     20 H                     0.210519      -0.000098
     21 H                     0.207712      -0.003410
     22 H                     0.212560      -0.011175
  --------------------------------------------------------
  Sum of atomic charges =     1.000000

                    Cartesian Multipole Moments
 -----------------------------------------------------------------
    Charge (ESU x 10^10)
                 4.8032
    Dipole Moment (Debye)
         X      -0.0134      Y      -0.0004      Z       0.0002
       Tot       0.0134
    Quadrupole Moments (Debye-Ang)
        XX     -17.3337     XY       0.0033     YY     -56.1062
        XZ       0.0002     YZ       0.0001     ZZ     -65.7686
    Octapole Moments (Debye-Ang^2)
       XXX      -0.1228    XXY       0.0027    XYY      -0.0097
       YYY      -0.0010    XXZ      -0.0165    XYZ      24.1334
       YYZ       0.0060    XZZ      -0.0082    YZZ       0.0002
       ZZZ       0.0035
    Hexadecapole Moments (Debye-Ang^3)
      XXXX   -1639.6785   XXXY       0.0438   XXYY    -413.2324
      XYYY       0.0107   YYYY    -386.7163   XXXZ       0.0091
      XXYZ      -0.0076   XYYZ       0.0037   YYYZ       0.0041
      XXZZ    -446.2879   XYZZ      -0.0057   YYZZ     -83.9951

 Total job time:  391.39s(wall), 391.37s(cpu)
        *  Thank you very much for using Q-Chem.  Have a nice day.  *
