User input:
--------------------------------------------------------------
$comment
DFT(BP86)/TZ(d,p) SP  biphenyl
Angle: 5.0
$end

$rem
JOBTYPE SP
EXCHANGE B
CORRELATION P86
BASIS TZ(d,p)
UNRESTRICTED TRUE
PRINT_ORBITALS FALSE
MAX_SCF_CYCLES 100
$end

$molecule
1 2
C	-1.481133	-1.211445	0.0
C	-2.878369	-1.221831	0.0
C	-0.747319	-0.004143	0.0
C	-3.595846	-0.020564	0.0
C	-2.891793	1.188615	0.0
C	-1.494461	1.195084	0.0
H	-0.988428	2.160976	0.0
H	-3.432896	2.137017	0.0
H	-4.687552	-0.02652	0.0
H	-0.962498	-2.170451	0.0
H	-3.408061	-2.176748	0.0
C	2.89148486848	-1.18439255301	-0.104933843296
C	1.4941748856	-1.19090180245	-0.104859417908
C	3.59551302967	0.0202063670809	0.000129016848215
C	0.747016	0.003728	0.0
C	1.48084012096	1.2064845569	0.104887946027
C	2.87806718224	1.21688992255	0.105154420122
H	3.43260080328	-2.12914596167	-0.187837264793
H	0.988454588557	-2.1526921961	-0.188770962723
H	3.40797927227	2.16851861789	0.188165795896
H	0.962226395343	2.16175325272	0.188700953801
H	4.68721803411	0.0261775233046	0.00014834276994
$end
--------------------------------------------------------------

       Standard Nuclear Orientation (Angstroms)
    I     Atom         X            Y            Z
 ----------------------------------------------------
    1      C       1.487787    -1.201760    -0.052461
    2      C       2.885059    -1.204272    -0.052594
    3      C       0.747184     0.000244     0.000031
    4      C       3.595759    -0.000130    -0.000032
    5      C       2.884906     1.203917     0.052549
    6      C       1.487560     1.202515     0.052511
    7      H       0.976094     2.164625     0.094526
    8      H       3.420659     2.154446     0.094041
    9      H       4.687481     0.000064    -0.000041
   10      H       0.974562    -2.162757    -0.094411
   11      H       3.420121    -2.155284    -0.094125
   12      C      -2.884912    -1.203919     0.052550
   13      C      -1.487588    -1.202555     0.052512
   14      C      -3.595716     0.000135    -0.000032
   15      C      -0.747171    -0.000302     0.000032
   16      C      -1.487760     1.201736    -0.052462
   17      C      -2.885024     1.204279    -0.052595
   18      H      -3.420697    -2.154420     0.094041
   19      H      -0.976457    -2.164229     0.094508
   20      H      -3.420289     2.155626    -0.094140
   21      H      -0.974536     2.162654    -0.094409
   22      H      -4.687437    -0.000043    -0.000041
 ----------------------------------------------------

   19    -463.1435908281      5.61E-06 Convergence criterion met
 Total energy in the final basis set = -463.1435908281

                    Orbital Energies (a.u.)
 --------------------------------------------------------------

 Alpha MOs
 -- Occupied --
-10.116 -10.116 -10.093 -10.092 -10.088 -10.088 -10.088 -10.088
-10.078 -10.078 -10.078 -10.078  -0.976  -0.952  -0.889  -0.856
 -0.846  -0.837  -0.743  -0.737  -0.703  -0.696  -0.656  -0.617
 -0.596  -0.593  -0.562  -0.556  -0.553  -0.551  -0.534  -0.532
 -0.500  -0.491  -0.484  -0.475  -0.461  -0.443  -0.407  -0.401
 -0.390

 Beta MOs
 -- Occupied --
-10.114 -10.114 -10.089 -10.089 -10.087 -10.087 -10.087 -10.086
-10.078 -10.078 -10.078 -10.078  -0.971  -0.948  -0.884  -0.854
 -0.844  -0.830  -0.739  -0.735  -0.700  -0.693  -0.654  -0.615
 -0.594  -0.591  -0.559  -0.554  -0.551  -0.551  -0.532  -0.521
 -0.491  -0.490  -0.482  -0.474  -0.459  -0.429  -0.402  -0.397

          Ground-State Mulliken Net Atomic Charges

     Atom                 Charge (a.u.)    Spin (a.u.)
  --------------------------------------------------------
      1 C                    -0.160774       0.088833
      2 C                    -0.132619      -0.027100
      3 C                     0.170320       0.150164
      4 C                    -0.079878       0.248413
      5 C                    -0.133110      -0.024700
      6 C                    -0.160329       0.085862
      7 H                     0.182514      -0.004699
      8 H                     0.209284      -0.000126
      9 H                     0.213085      -0.011964
     10 H                     0.182405      -0.004997
     11 H                     0.209336       0.000199
     12 C                    -0.132821      -0.025931
     13 C                    -0.160620       0.086755
     14 C                    -0.080183       0.248552
     15 C                     0.170288       0.151494
     16 C                    -0.160355       0.085809
     17 C                    -0.133189      -0.025101
     18 H                     0.209258       0.000058
     19 H                     0.182475      -0.004765
     20 H                     0.209422      -0.000040
     21 H                     0.182390      -0.004640
     22 H                     0.213102      -0.012077
  --------------------------------------------------------
  Sum of atomic charges =     1.000000

                    Cartesian Multipole Moments
 -----------------------------------------------------------------
    Charge (ESU x 10^10)
                 4.8032
    Dipole Moment (Debye)
         X       0.0054      Y       0.0004      Z       0.0000
       Tot       0.0055
    Quadrupole Moments (Debye-Ang)
        XX     -17.0472     XY       0.0045     YY     -49.8324
        XZ      -0.0002     YZ      -0.0001     ZZ     -72.4476
    Octapole Moments (Debye-Ang^2)
       XXX       0.0604    XXY      -0.0107    XYY      -0.0058
       YYY       0.0023    XXZ      -0.0020    XYZ       2.3055
       YYZ       0.0008    XZZ       0.0007    YZZ      -0.0018
       ZZZ      -0.0001
    Hexadecapole Moments (Debye-Ang^3)
      XXXX   -1634.1170   XXXY       0.0081   XXYY    -392.6959
      XYYY      -0.0118   YYYY    -466.4121   XXXZ      -0.0018
      XXYZ      -0.0011   XYYZ       0.0005   YYYZ      -0.0004
      XXZZ    -467.7638   XYZZ       0.0022   YYZZ    -117.7107

 Total job time:  342.03s(wall), 342.10s(cpu)
        *  Thank you very much for using Q-Chem.  Have a nice day.  *
