User input:
--------------------------------------------------------------
$comment
DFT(BP86)/TZ(d,p) SP  biphenyl
Angle: 80.0
$end

$rem
JOBTYPE SP
EXCHANGE B
CORRELATION P86
BASIS TZ(d,p)
UNRESTRICTED TRUE
PRINT_ORBITALS FALSE
MAX_SCF_CYCLES 100
$end

$molecule
1 2
C	-1.481133	-1.211445	0.0
C	-2.878369	-1.221831	0.0
C	-0.747319	-0.004143	0.0
C	-3.595846	-0.020564	0.0
C	-2.891793	1.188615	0.0
C	-1.494461	1.195084	0.0
H	-0.988428	2.160976	0.0
H	-3.432896	2.137017	0.0
H	-4.687552	-0.02652	0.0
H	-0.962498	-2.170451	0.0
H	-3.408061	-2.176748	0.0
C	2.88626864776	-0.194076049904	-1.18568965364
C	1.48896236453	-0.201287691324	-1.18484869128
C	3.59551944305	0.0189887664484	0.00145781320182
C	0.747016	0.003728	0.0
C	1.48605406015	0.216601210738	1.18517104196
C	2.88329436775	0.224491718588	1.18818203982
H	3.42326348557	-0.356425765967	-2.12244872043
H	0.979070857084	-0.371160196319	-2.13299894846
H	3.41733292114	0.392697899396	2.12616092535
H	0.971606646699	0.380881964371	2.13220788953
H	4.68722540818	0.0247775336676	0.00167618455577
$end
--------------------------------------------------------------

       Standard Nuclear Orientation (Angstroms)
    I     Atom         X            Y            Z
 ----------------------------------------------------
    1      C      -1.487575    -0.921529     0.773081
    2      C      -2.884847    -0.923494     0.775036
    3      C      -0.747184     0.000166    -0.000457
    4      C      -3.595758    -0.000199     0.000474
    5      C      -2.885118     0.923062    -0.774371
    6      C      -1.487772     0.922026    -0.773808
    7      H      -0.976476     1.659768    -1.392945
    8      H      -3.421039     1.651896    -1.385803
    9      H      -4.687481    -0.000081     0.000614
   10      H      -0.974180    -1.658390     1.391253
   11      H      -3.419741    -1.652728     1.387038
   12      C       2.885114    -0.923045    -0.774398
   13      C       1.487789    -0.922038    -0.773839
   14      C       3.595716     0.000203     0.000464
   15      C       0.747171    -0.000211    -0.000468
   16      C       1.487559     0.921492     0.773103
   17      C       2.884822     0.923481     0.775059
   18      H       3.421058    -1.651843    -1.385836
   19      H       0.976819    -1.659432    -1.392705
   20      H       3.419928     1.652956     1.387286
   21      H       0.974174     1.658278     1.391250
   22      H       4.687437     0.000097     0.000599
 ----------------------------------------------------

   24    -463.1237005821      5.91E-06 Convergence criterion met
 Total energy in the final basis set = -463.1237005821

                    Orbital Energies (a.u.)
 --------------------------------------------------------------

 Alpha MOs
 -- Occupied --
-10.115 -10.115 -10.091 -10.091 -10.084 -10.084 -10.084 -10.084
-10.077 -10.077 -10.077 -10.077  -0.973  -0.950  -0.888  -0.848
 -0.847  -0.836  -0.741  -0.721  -0.716  -0.695  -0.648  -0.620
 -0.587  -0.583  -0.583  -0.560  -0.548  -0.539  -0.538  -0.508
 -0.505  -0.495  -0.472  -0.471  -0.468  -0.416  -0.408  -0.404
 -0.399

 Beta MOs
 -- Occupied --
-10.112 -10.112 -10.088 -10.088 -10.083 -10.083 -10.083 -10.083
-10.077 -10.077 -10.077 -10.077  -0.968  -0.946  -0.882  -0.847
 -0.846  -0.829  -0.737  -0.718  -0.713  -0.692  -0.647  -0.618
 -0.584  -0.581  -0.579  -0.559  -0.546  -0.538  -0.538  -0.500
 -0.496  -0.494  -0.470  -0.468  -0.466  -0.402  -0.400  -0.396

          Ground-State Mulliken Net Atomic Charges

     Atom                 Charge (a.u.)    Spin (a.u.)
  --------------------------------------------------------
      1 C                    -0.154949       0.035383
      2 C                    -0.115850       0.010527
      3 C                     0.071524       0.200238
      4 C                    -0.077812       0.224843
      5 C                    -0.115848       0.013854
      6 C                    -0.154887       0.031827
      7 H                     0.207390      -0.002162
      8 H                     0.210694      -0.000501
      9 H                     0.212579      -0.010708
     10 H                     0.207373      -0.002396
     11 H                     0.210709      -0.000274
     12 C                    -0.116028       0.013031
     13 C                    -0.154883       0.032041
     14 C                    -0.078615       0.224696
     15 C                     0.070753       0.200401
     16 C                    -0.155016       0.034593
     17 C                    -0.115989       0.010643
     18 H                     0.210720      -0.000429
     19 H                     0.207332      -0.002202
     20 H                     0.210820      -0.000303
     21 H                     0.207379      -0.002336
     22 H                     0.212605      -0.010765
  --------------------------------------------------------
  Sum of atomic charges =     1.000000

                    Cartesian Multipole Moments
 -----------------------------------------------------------------
    Charge (ESU x 10^10)
                 4.8032
    Dipole Moment (Debye)
         X      -0.0182      Y       0.0004      Z      -0.0006
       Tot       0.0182
    Quadrupole Moments (Debye-Ang)
        XX     -17.3299     XY      -0.0081     YY     -58.9073
        XZ       0.0004     YZ       0.0010     ZZ     -62.9183
    Octapole Moments (Debye-Ang^2)
       XXX      -0.1847    XXY       0.0029    XYY      -0.0054
       YYY      -0.0008    XXZ       0.0015    XYZ      26.2861
       YYZ      -0.0058    XZZ      -0.0057    YZZ       0.0010
       ZZZ      -0.0072
    Hexadecapole Moments (Debye-Ang^3)
      XXXX   -1640.1579   XXXY      -0.1176   XXYY    -422.1777
      XYYY      -0.0264   YYYY    -344.4577   XXXZ       0.0031
      XXYZ       0.0173   XYYZ       0.0043   YYYZ       0.0032
      XXZZ    -436.7693   XYZZ       0.0051   YYZZ     -77.7268

 Total job time:  403.83s(wall), 403.98s(cpu)
        *  Thank you very much for using Q-Chem.  Have a nice day.  *
