User input:
--------------------------------------------------------------
$comment
DFT(BP86)/TZ(d,p) SP  biphenyl
Angle: 75.0
$end

$rem
JOBTYPE SP
EXCHANGE B
CORRELATION P86
BASIS TZ(d,p)
UNRESTRICTED TRUE
PRINT_ORBITALS FALSE
MAX_SCF_CYCLES 100
$end

$molecule
1 2
C	-1.481133	-1.211445	0.0
C	-2.878369	-1.221831	0.0
C	-0.747319	-0.004143	0.0
C	-3.595846	-0.020564	0.0
C	-2.891793	1.188615	0.0
C	-1.494461	1.195084	0.0
H	-0.988428	2.160976	0.0
H	-3.432896	2.137017	0.0
H	-4.687552	-0.02652	0.0
H	-0.962498	-2.170451	0.0
H	-3.408061	-2.176748	0.0
C	2.88680876316	-0.296618718934	-1.16295617587
C	1.48950209685	-0.30375763093	-1.16213133746
C	3.59551877897	0.0191148433322	0.00142986224188
C	0.747016	0.003728	0.0
C	1.48551418099	0.319099028381	1.16244750764
C	2.882753117	0.327249938062	1.16540077501
H	3.4242303214	-0.53998269927	-2.08175456354
H	0.980042498845	-0.555629550961	-2.09210250982
H	3.41636439429	0.576575877418	2.08539559357
H	0.970635365289	0.565282905415	2.09132661802
H	4.68722464463	0.0249224960847	0.00164404671581
$end
--------------------------------------------------------------

       Standard Nuclear Orientation (Angstroms)
    I     Atom         X            Y            Z
 ----------------------------------------------------
    1      C       1.487595    -0.954373    -0.732160
    2      C       2.884867    -0.956404    -0.734012
    3      C       0.747184     0.000174     0.000433
    4      C       3.595758    -0.000196    -0.000448
    5      C       2.885098     0.955972     0.733383
    6      C       1.487752     0.954896     0.732849
    7      H       0.976440     1.718933     1.319214
    8      H       3.421003     1.710787     1.312451
    9      H       4.687481    -0.000071    -0.000581
   10      H       0.974216    -1.717500    -1.317612
   11      H       3.419777    -1.711630    -1.313620
   12      C      -2.885095    -0.955963     0.733402
   13      C      -1.487770    -0.954916     0.732873
   14      C      -3.595716     0.000200    -0.000439
   15      C      -0.747171    -0.000221     0.000443
   16      C      -1.487578     0.954342    -0.732176
   17      C      -2.884841     0.956398    -0.734028
   18      H      -3.421024    -1.710746     1.312471
   19      H      -0.976785    -1.718598     1.318977
   20      H      -3.419962     1.711881    -1.313844
   21      H      -0.974208     1.717399    -1.317599
   22      H      -4.687437     0.000087    -0.000567
 ----------------------------------------------------

   24    -463.1259630083      6.65E-06 Convergence criterion met
 Total energy in the final basis set = -463.1259630083

                    Orbital Energies (a.u.)
 --------------------------------------------------------------

 Alpha MOs
 -- Occupied --
-10.115 -10.115 -10.091 -10.091 -10.084 -10.084 -10.084 -10.084
-10.077 -10.077 -10.077 -10.077  -0.974  -0.950  -0.888  -0.849
 -0.847  -0.836  -0.741  -0.722  -0.715  -0.695  -0.648  -0.620
 -0.588  -0.583  -0.582  -0.560  -0.548  -0.539  -0.538  -0.509
 -0.504  -0.495  -0.472  -0.470  -0.468  -0.418  -0.406  -0.404
 -0.399

 Beta MOs
 -- Occupied --
-10.112 -10.112 -10.088 -10.088 -10.083 -10.083 -10.083 -10.083
-10.077 -10.077 -10.077 -10.077  -0.968  -0.946  -0.882  -0.847
 -0.845  -0.829  -0.737  -0.720  -0.712  -0.692  -0.647  -0.618
 -0.585  -0.581  -0.578  -0.559  -0.546  -0.539  -0.538  -0.501
 -0.495  -0.493  -0.470  -0.468  -0.467  -0.404  -0.400  -0.396

          Ground-State Mulliken Net Atomic Charges

     Atom                 Charge (a.u.)    Spin (a.u.)
  --------------------------------------------------------
      1 C                    -0.154869       0.040387
      2 C                    -0.116422       0.006956
      3 C                     0.072359       0.195229
      4 C                    -0.077241       0.228213
      5 C                    -0.116275       0.007816
      6 C                    -0.155255       0.039311
      7 H                     0.207544      -0.002557
      8 H                     0.210593      -0.000295
      9 H                     0.212568      -0.010975
     10 H                     0.207443      -0.002630
     11 H                     0.210638      -0.000257
     12 C                    -0.116298       0.007036
     13 C                    -0.155665       0.040780
     14 C                    -0.077857       0.226633
     15 C                     0.071963       0.193485
     16 C                    -0.155198       0.039571
     17 C                    -0.116747       0.008153
     18 H                     0.210562      -0.000257
     19 H                     0.207450      -0.002754
     20 H                     0.210724      -0.000413
     21 H                     0.207425      -0.002573
     22 H                     0.212558      -0.010857
  --------------------------------------------------------
  Sum of atomic charges =     1.000000

                    Cartesian Multipole Moments
 -----------------------------------------------------------------
    Charge (ESU x 10^10)
                 4.8032
    Dipole Moment (Debye)
         X       0.0227      Y       0.0005      Z      -0.0004
       Tot       0.0227
    Quadrupole Moments (Debye-Ang)
        XX     -17.3386     XY       0.0074     YY     -57.9508
        XZ      -0.0004     YZ       0.0023     ZZ     -63.8889
    Octapole Moments (Debye-Ang^2)
       XXX       0.2099    XXY       0.0008    XYY       0.0177
       YYY       0.0000    XXZ      -0.0063    XYZ      25.7508
       YYZ       0.0059    XZZ       0.0160    YZZ       0.0010
       ZZZ       0.0037
    Hexadecapole Moments (Debye-Ang^3)
      XXXX   -1640.0959   XXXY       0.0993   XXYY    -419.1300
      XYYY       0.0070   YYYY    -359.4700   XXXZ      -0.0048
      XXYZ      -0.0033   XYYZ       0.0053   YYYZ       0.0051
      XXZZ    -440.0466   XYZZ      -0.0096   YYZZ     -79.3019

 Total job time:  411.45s(wall), 411.37s(cpu)
        *  Thank you very much for using Q-Chem.  Have a nice day.  *
