User input:
--------------------------------------------------------------
$comment
DFT(BP86)/TZ(d,p) SP  biphenyl
Angle: 30.0
$end

$rem
JOBTYPE SP
EXCHANGE B
CORRELATION P86
BASIS TZ(d,p)
UNRESTRICTED TRUE
PRINT_ORBITALS FALSE
MAX_SCF_CYCLES 100
$end

$molecule
1 2
C	-1.481133	-1.211445	0.0
C	-2.878369	-1.221831	0.0
C	-0.747319	-0.004143	0.0
C	-3.595846	-0.020564	0.0
C	-2.891793	1.188615	0.0
C	-1.494461	1.195084	0.0
H	-0.988428	2.160976	0.0
H	-3.432896	2.137017	0.0
H	-4.687552	-0.02652	0.0
H	-0.962498	-2.170451	0.0
H	-3.408061	-2.176748	0.0
C	2.89065939326	-1.02767339227	-0.601990413872
C	1.49334999586	-1.03429379636	-0.60156344609
C	3.5955140446	0.0200136798454	0.000740151160141
C	0.747016	0.003728	0.0
C	1.48166523513	1.04983394394	0.60172710782
C	2.87889439266	1.05984132934	0.6032558315
H	3.43112315791	-1.84861017293	-1.07759545654
H	0.986969598136	-1.87076192536	-1.0829519477
H	3.40945950207	1.88749216649	1.07948019238
H	0.96371083503	1.87992754061	1.08255031655
H	4.68721920107	0.0259559727193	0.000851021202181
$end
--------------------------------------------------------------

       Standard Nuclear Orientation (Angstroms)
    I     Atom         X            Y            Z
 ----------------------------------------------------
    1      C       1.487750    -1.161926    -0.311284
    2      C       2.885023    -1.164364    -0.312071
    3      C       0.747184     0.000231     0.000184
    4      C       3.595759    -0.000147    -0.000190
    5      C       2.884943     1.163985     0.311805
    6      C       1.487596     1.162639     0.311578
    7      H       0.976160     2.092854     0.560876
    8      H       3.420724     2.082998     0.558001
    9      H       4.687481     0.000033    -0.000246
   10      H       0.974496    -2.091059    -0.560194
   11      H       3.420056    -2.083849    -0.558497
   12      C      -2.884947    -1.163987     0.311808
   13      C      -1.487623    -1.162676     0.311584
   14      C      -3.595716     0.000152    -0.000187
   15      C      -0.747171    -0.000288     0.000188
   16      C      -1.487725     1.161902    -0.311288
   17      C      -2.884989     1.164369    -0.312076
   18      H      -3.420760    -2.082971     0.558002
   19      H      -0.976520    -2.092470     0.560768
   20      H      -3.420226     2.084178    -0.558587
   21      H      -0.974474     2.090959    -0.560183
   22      H      -4.687437    -0.000013    -0.000242
 ----------------------------------------------------

   18    -463.1425784382      5.80E-06 Convergence criterion met
 Total energy in the final basis set = -463.1425784382

                    Orbital Energies (a.u.)
 --------------------------------------------------------------

 Alpha MOs
 -- Occupied --
-10.115 -10.115 -10.092 -10.092 -10.087 -10.087 -10.087 -10.087
-10.078 -10.078 -10.078 -10.077  -0.975  -0.952  -0.888  -0.854
 -0.846  -0.837  -0.742  -0.734  -0.705  -0.696  -0.652  -0.618
 -0.594  -0.589  -0.567  -0.558  -0.552  -0.546  -0.537  -0.523
 -0.501  -0.493  -0.480  -0.473  -0.464  -0.438  -0.405  -0.402
 -0.393

 Beta MOs
 -- Occupied --
-10.113 -10.113 -10.089 -10.089 -10.086 -10.086 -10.086 -10.086
-10.078 -10.078 -10.078 -10.078  -0.970  -0.947  -0.883  -0.852
 -0.844  -0.830  -0.738  -0.731  -0.702  -0.693  -0.651  -0.616
 -0.592  -0.587  -0.564  -0.556  -0.549  -0.546  -0.536  -0.514
 -0.491  -0.491  -0.479  -0.471  -0.462  -0.424  -0.400  -0.398

          Ground-State Mulliken Net Atomic Charges

     Atom                 Charge (a.u.)    Spin (a.u.)
  --------------------------------------------------------
      1 C                    -0.170687       0.080550
      2 C                    -0.128437      -0.019202
      3 C                     0.148468       0.154673
      4 C                    -0.079613       0.244079
      5 C                    -0.128750      -0.018811
      6 C                    -0.170467       0.079920
      7 H                     0.198419      -0.004378
      8 H                     0.209632      -0.000211
      9 H                     0.212978      -0.011778
     10 H                     0.198330      -0.004430
     11 H                     0.209692      -0.000174
     12 C                    -0.128609      -0.017760
     13 C                    -0.170226       0.080593
     14 C                    -0.079187       0.242789
     15 C                     0.148552       0.152703
     16 C                    -0.170736       0.081578
     17 C                    -0.128057      -0.018891
     18 H                     0.209595      -0.000399
     19 H                     0.198241      -0.004523
     20 H                     0.209704      -0.000216
     21 H                     0.198245      -0.004577
     22 H                     0.212915      -0.011532
  --------------------------------------------------------
  Sum of atomic charges =     1.000000

                    Cartesian Multipole Moments
 -----------------------------------------------------------------
    Charge (ESU x 10^10)
                 4.8032
    Dipole Moment (Debye)
         X      -0.0125      Y       0.0008      Z       0.0003
       Tot       0.0125
    Quadrupole Moments (Debye-Ang)
        XX     -17.1104     XY      -0.0017     YY     -51.1979
        XZ       0.0004     YZ       0.0009     ZZ     -70.9387
    Octapole Moments (Debye-Ang^2)
       XXX      -0.1166    XXY       0.0099    XYY      -0.0005
       YYY       0.0014    XXZ      -0.0169    XYZ      13.3073
       YYZ       0.0048    XZZ      -0.0007    YZZ      -0.0013
       ZZZ       0.0006
    Hexadecapole Moments (Debye-Ang^3)
      XXXX   -1635.4835   XXXY      -0.0677   XXYY    -397.3183
      XYYY      -0.0107   YYYY    -450.1836   XXXZ       0.0052
      XXYZ      -0.0010   XYYZ       0.0020   YYYZ       0.0090
      XXZZ    -462.8083   XYZZ      -0.0025   YYZZ    -107.8348

 Total job time:  325.21s(wall), 325.24s(cpu)
        *  Thank you very much for using Q-Chem.  Have a nice day.  *
