User input:
--------------------------------------------------------------
$comment
DFT(BP86)/TZ(d,p) SP  biphenyl
Angle: 10.0
$end

$rem
JOBTYPE SP
EXCHANGE B
CORRELATION P86
BASIS TZ(d,p)
UNRESTRICTED TRUE
PRINT_ORBITALS FALSE
MAX_SCF_CYCLES 100
$end

$molecule
1 2
C	-1.481133	-1.211445	0.0
C	-2.878369	-1.221831	0.0
C	-0.747319	-0.004143	0.0
C	-3.595846	-0.020564	0.0
C	-2.891793	1.188615	0.0
C	-1.494461	1.195084	0.0
H	-0.988428	2.160976	0.0
H	-3.432896	2.137017	0.0
H	-4.687552	-0.02652	0.0
H	-0.962498	-2.170451	0.0
H	-3.408061	-2.176748	0.0
C	2.89141265759	-1.17068307962	-0.209069076684
C	1.49410272592	-1.17720205264	-0.208920792329
C	3.59551311845	0.0201895111935	0.000257051800313
C	0.747016	0.003728	0.0
C	1.48091230027	1.19278107993	0.208977631452
C	2.87813954493	1.20315163108	0.209508551614
H	3.43247154187	-2.10460526153	-0.374244974582
H	0.988324684616	-2.12802950951	-0.376105264436
H	3.40810875977	2.14393499558	0.374899536467
H	0.962356251107	2.1370997127	0.375965779403
H	4.6872181362	0.0261581425101	0.000295556561829
$end
--------------------------------------------------------------

       Standard Nuclear Orientation (Angstroms)
    I     Atom         X            Y            Z
 ----------------------------------------------------
    1      C       1.487784    -1.198328    -0.104823
    2      C       2.885056    -1.200834    -0.105088
    3      C       0.747184     0.000243     0.000062
    4      C       3.595759    -0.000132    -0.000064
    5      C       2.884909     1.200476     0.104998
    6      C       1.487563     1.199080     0.104922
    7      H       0.976100     2.158442     0.188872
    8      H       3.420664     2.148291     0.187904
    9      H       4.687481     0.000061    -0.000083
   10      H       0.974556    -2.156580    -0.188642
   11      H       3.420115    -2.149130    -0.188070
   12      C      -2.884915    -1.200479     0.105000
   13      C      -1.487591    -1.199119     0.104924
   14      C      -3.595716     0.000136    -0.000063
   15      C      -0.747171    -0.000301     0.000063
   16      C      -1.487757     1.198304    -0.104824
   17      C      -2.885020     1.200841    -0.105090
   18      H      -3.420703    -2.148264     0.187904
   19      H      -0.976463    -2.158047     0.188835
   20      H      -3.420283     2.149470    -0.188101
   21      H      -0.974531     2.156478    -0.188638
   22      H      -4.687437    -0.000040    -0.000082
 ----------------------------------------------------

   18    -463.1435730574      7.42E-06 Convergence criterion met
 Total energy in the final basis set = -463.1435730574

                    Orbital Energies (a.u.)
 --------------------------------------------------------------

 Alpha MOs
 -- Occupied --
-10.116 -10.116 -10.092 -10.092 -10.088 -10.088 -10.088 -10.087
-10.078 -10.078 -10.078 -10.078  -0.976  -0.952  -0.889  -0.856
 -0.846  -0.837  -0.743  -0.737  -0.703  -0.696  -0.655  -0.617
 -0.596  -0.593  -0.562  -0.556  -0.553  -0.551  -0.534  -0.530
 -0.500  -0.491  -0.483  -0.474  -0.461  -0.442  -0.407  -0.401
 -0.390

 Beta MOs
 -- Occupied --
-10.114 -10.114 -10.089 -10.089 -10.087 -10.087 -10.087 -10.086
-10.078 -10.078 -10.078 -10.078  -0.971  -0.948  -0.883  -0.854
 -0.844  -0.830  -0.739  -0.735  -0.700  -0.693  -0.654  -0.615
 -0.594  -0.591  -0.560  -0.555  -0.551  -0.550  -0.533  -0.521
 -0.491  -0.490  -0.482  -0.473  -0.459  -0.429  -0.402  -0.397

          Ground-State Mulliken Net Atomic Charges

     Atom                 Charge (a.u.)    Spin (a.u.)
  --------------------------------------------------------
      1 C                    -0.161651       0.081053
      2 C                    -0.132541      -0.020245
      3 C                     0.169934       0.152007
      4 C                    -0.080154       0.245840
      5 C                    -0.132637      -0.024958
      6 C                    -0.163070       0.087489
      7 H                     0.184363      -0.004918
      8 H                     0.209292      -0.000029
      9 H                     0.213096      -0.011740
     10 H                     0.184121      -0.004147
     11 H                     0.209347      -0.000568
     12 C                    -0.132586      -0.023646
     13 C                    -0.162348       0.084798
     14 C                    -0.080255       0.247045
     15 C                     0.169930       0.152273
     16 C                    -0.162576       0.084537
     17 C                    -0.132633      -0.023528
     18 H                     0.209320      -0.000138
     19 H                     0.184345      -0.004563
     20 H                     0.209451      -0.000170
     21 H                     0.184165      -0.004508
     22 H                     0.213086      -0.011884
  --------------------------------------------------------
  Sum of atomic charges =     1.000000

                    Cartesian Multipole Moments
 -----------------------------------------------------------------
    Charge (ESU x 10^10)
                 4.8032
    Dipole Moment (Debye)
         X      -0.0006      Y      -0.0057      Z      -0.0004
       Tot       0.0057
    Quadrupole Moments (Debye-Ang)
        XX     -17.0469     XY      -0.0065     YY     -49.9459
        XZ      -0.0004     YZ      -0.0002     ZZ     -72.3147
    Octapole Moments (Debye-Ang^2)
       XXX      -0.0198    XXY      -0.0143    XYY      -0.0106
       YYY      -0.0094    XXZ      -0.0066    XYZ       4.5979
       YYZ       0.0017    XZZ      -0.0019    YZZ      -0.0036
       ZZZ      -0.0002
    Hexadecapole Moments (Debye-Ang^3)
      XXXX   -1634.0859   XXXY      -0.0582   XXYY    -393.0832
      XYYY      -0.0245   YYYY    -465.0001   XXXZ       0.0007
      XXYZ      -0.0031   XYYZ       0.0006   YYYZ      -0.0014
      XXZZ    -467.3037   XYZZ      -0.0031   YYZZ    -116.7988

 Total job time:  327.55s(wall), 327.52s(cpu)
        *  Thank you very much for using Q-Chem.  Have a nice day.  *
