User input:
--------------------------------------------------------------
$comment
DFT(BP86)/TZ(d,p) SP  biphenyl
Angle: 50.0
$end

$rem
JOBTYPE SP
EXCHANGE B
CORRELATION P86
BASIS TZ(d,p)
UNRESTRICTED TRUE
PRINT_ORBITALS FALSE
MAX_SCF_CYCLES 100
$end

$molecule
1 2
C	-1.481133	-1.211445	0.0
C	-2.878369	-1.221831	0.0
C	-0.747319	-0.004143	0.0
C	-3.595846	-0.020564	0.0
C	-2.891793	1.188615	0.0
C	-1.494461	1.195084	0.0
H	-0.988428	2.160976	0.0
H	-3.432896	2.137017	0.0
H	-4.687552	-0.02652	0.0
H	-0.962498	-2.170451	0.0
H	-3.408061	-2.176748	0.0
C	2.8892437194	-0.758903096461	-0.922302822715
C	1.49193532608	-0.765714128593	-0.921648670122
C	3.59551578518	0.0196832250048	0.00113397736659
C	0.747016	0.003728	0.0
C	1.48308028978	0.78118120622	0.921899414439
C	2.88031304234	0.79050606329	0.924241554999
H	3.428589025	-1.36749678151	-1.65097202283
H	0.984422868605	-1.38725702458	-1.65917864339
H	3.41199806723	1.40553729821	1.65385960565
H	0.966256620063	1.39660195585	1.65856330878
H	4.68722120238	0.0255760177981	0.00130384012581
$end
--------------------------------------------------------------

       Standard Nuclear Orientation (Angstroms)
    I     Atom         X            Y            Z
 ----------------------------------------------------
    1      C       1.487690    -1.090225    -0.508287
    2      C       2.884963    -1.092526    -0.509572
    3      C       0.747184     0.000210     0.000301
    4      C       3.595759    -0.000171    -0.000311
    5      C       2.885002     1.092117     0.509137
    6      C       1.487656     1.090867     0.508766
    7      H       0.976268     1.963673     0.915838
    8      H       3.420831     1.954403     0.911143
    9      H       4.687481    -0.000012    -0.000402
   10      H       0.974388    -1.962007    -0.914725
   11      H       3.419949    -1.955265    -0.911953
   12      C      -2.885004    -1.092117     0.509144
   13      C      -1.487680    -1.090900     0.508777
   14      C      -3.595716     0.000176    -0.000306
   15      C      -0.747171    -0.000263     0.000307
   16      C      -1.487668     1.090201    -0.508294
   17      C      -2.884932     1.092529    -0.509580
   18      H      -3.420862    -1.954375     0.911147
   19      H      -0.976622    -1.963309     0.915664
   20      H      -3.420124     1.955570    -0.912102
   21      H      -0.974371     1.961910    -0.914708
   22      H      -4.687437     0.000031    -0.000395
 ----------------------------------------------------

   19    -463.1372335446      8.41E-06 Convergence criterion met
 Total energy in the final basis set = -463.1372335446

                    Orbital Energies (a.u.)
 --------------------------------------------------------------

 Alpha MOs
 -- Occupied --
-10.115 -10.115 -10.092 -10.092 -10.086 -10.086 -10.086 -10.086
-10.077 -10.077 -10.077 -10.077  -0.974  -0.951  -0.888  -0.852
 -0.846  -0.837  -0.741  -0.729  -0.709  -0.696  -0.650  -0.619
 -0.592  -0.586  -0.574  -0.559  -0.550  -0.542  -0.538  -0.516
 -0.502  -0.494  -0.476  -0.470  -0.467  -0.430  -0.403  -0.402
 -0.397

 Beta MOs
 -- Occupied --
-10.113 -10.113 -10.089 -10.089 -10.085 -10.085 -10.085 -10.085
-10.077 -10.077 -10.077 -10.077  -0.969  -0.947  -0.882  -0.850
 -0.845  -0.830  -0.738  -0.726  -0.706  -0.692  -0.649  -0.618
 -0.590  -0.584  -0.570  -0.558  -0.548  -0.541  -0.537  -0.508
 -0.493  -0.493  -0.474  -0.469  -0.465  -0.417  -0.399  -0.398

          Ground-State Mulliken Net Atomic Charges

     Atom                 Charge (a.u.)    Spin (a.u.)
  --------------------------------------------------------
      1 C                    -0.161956       0.068001
      2 C                    -0.121259      -0.009610
      3 C                     0.095587       0.164816
      4 C                    -0.077570       0.238148
      5 C                    -0.121223      -0.009618
      6 C                    -0.161689       0.067905
      7 H                     0.207230      -0.003893
      8 H                     0.210121      -0.000239
      9 H                     0.212770      -0.011534
     10 H                     0.207133      -0.003878
     11 H                     0.210184      -0.000256
     12 C                    -0.121293      -0.008434
     13 C                    -0.161619       0.068161
     14 C                    -0.076780       0.237046
     15 C                     0.096222       0.163771
     16 C                    -0.161603       0.068485
     17 C                    -0.121455      -0.008923
     18 H                     0.210106      -0.000405
     19 H                     0.207056      -0.003987
     20 H                     0.210252      -0.000330
     21 H                     0.207070      -0.003950
     22 H                     0.212715      -0.011274
  --------------------------------------------------------
  Sum of atomic charges =     1.000000

                    Cartesian Multipole Moments
 -----------------------------------------------------------------
    Charge (ESU x 10^10)
                 4.8032
    Dipole Moment (Debye)
         X      -0.0164      Y       0.0009      Z      -0.0004
       Tot       0.0165
    Quadrupole Moments (Debye-Ang)
        XX     -17.2489     XY       0.0025     YY     -53.6395
        XZ      -0.0002     YZ       0.0019     ZZ     -68.3280
    Octapole Moments (Debye-Ang^2)
       XXX      -0.1785    XXY      -0.0013    XYY      -0.0019
       YYY       0.0024    XXZ      -0.0182    XYZ      20.4070
       YYZ       0.0059    XZZ      -0.0043    YZZ       0.0000
       ZZZ       0.0011
    Hexadecapole Moments (Debye-Ang^3)
      XXXX   -1637.9299   XXXY       0.0191   XXYY    -405.2971
      XYYY      -0.0054   YYYY    -420.0121   XXXZ      -0.0070
      XXYZ       0.0016   XYYZ       0.0041   YYYZ       0.0103
      XXZZ    -454.5666   XYZZ      -0.0067   YYZZ     -93.8008

 Total job time:  336.17s(wall), 336.30s(cpu)
        *  Thank you very much for using Q-Chem.  Have a nice day.  *
