User input:
--------------------------------------------------------------
$comment
DFT(BP86)/TZ(d,p) SP  biphenyl
Angle: 35.0
$end

$rem
JOBTYPE SP
EXCHANGE B
CORRELATION P86
BASIS TZ(d,p)
UNRESTRICTED TRUE
PRINT_ORBITALS FALSE
MAX_SCF_CYCLES 100
$end

$molecule
1 2
C	-1.481133	-1.211445	0.0
C	-2.878369	-1.221831	0.0
C	-0.747319	-0.004143	0.0
C	-3.595846	-0.020564	0.0
C	-2.891793	1.188615	0.0
C	-1.494461	1.195084	0.0
H	-0.988428	2.160976	0.0
H	-3.432896	2.137017	0.0
H	-4.687552	-0.02652	0.0
H	-0.962498	-2.170451	0.0
H	-3.408061	-2.176748	0.0
C	2.89036214346	-0.971239548943	-0.690575032612
C	1.49305295688	-0.977899979301	-0.690085235295
C	3.59551441007	0.0199442940651	0.000849066529589
C	0.747016	0.003728	0.0
C	1.48196235491	0.993424784344	0.690272980319
C	2.87919226729	1.00328885891	0.69202666008
H	3.43059106466	-1.7475905358	-1.23616672359
H	0.986434859969	-1.76924014173	-1.2423114378
H	3.40999252596	1.78629584401	1.23832880371
H	0.964245374881	1.77844340806	1.24185070547
H	4.68721962129	0.0258761933805	0.000976251416812
$end
--------------------------------------------------------------

       Standard Nuclear Orientation (Angstroms)
    I     Atom         X            Y            Z
 ----------------------------------------------------
    1      C       1.487737    -1.147243    -0.361662
    2      C       2.885010    -1.149653    -0.362576
    3      C       0.747184     0.000227     0.000214
    4      C       3.595759    -0.000153    -0.000221
    5      C       2.884955     1.149267     0.362267
    6      C       1.487609     1.147941     0.362003
    7      H       0.976183     2.066399     0.651647
    8      H       3.420747     2.056663     0.648307
    9      H       4.687481     0.000023    -0.000286
   10      H       0.974473    -2.064632    -0.650855
   11      H       3.420033    -2.057518    -0.648883
   12      C      -2.884960    -1.149268     0.362271
   13      C      -1.487635    -1.147977     0.362010
   14      C      -3.595716     0.000157    -0.000218
   15      C      -0.747171    -0.000283     0.000219
   16      C      -1.487713     1.147219    -0.361666
   17      C      -2.884976     1.149658    -0.362582
   18      H      -3.420781    -2.056636     0.648308
   19      H      -0.976542    -2.066019     0.651522
   20      H      -3.420204     2.057842    -0.648988
   21      H      -0.974452     2.064532    -0.650842
   22      H      -4.687437    -0.000003    -0.000281
 ----------------------------------------------------

   19    -463.1417200348      8.11E-06 Convergence criterion met
 Total energy in the final basis set = -463.1417200348

                    Orbital Energies (a.u.)
 --------------------------------------------------------------

 Alpha MOs
 -- Occupied --
-10.115 -10.115 -10.092 -10.092 -10.087 -10.087 -10.087 -10.087
-10.078 -10.078 -10.078 -10.077  -0.975  -0.951  -0.888  -0.854
 -0.846  -0.837  -0.742  -0.733  -0.706  -0.696  -0.652  -0.618
 -0.594  -0.588  -0.569  -0.558  -0.551  -0.545  -0.537  -0.522
 -0.501  -0.493  -0.479  -0.472  -0.465  -0.436  -0.404  -0.402
 -0.394

 Beta MOs
 -- Occupied --
-10.113 -10.113 -10.089 -10.089 -10.086 -10.085 -10.085 -10.085
-10.078 -10.078 -10.078 -10.078  -0.970  -0.947  -0.883  -0.852
 -0.844  -0.830  -0.738  -0.730  -0.703  -0.693  -0.650  -0.617
 -0.592  -0.586  -0.566  -0.557  -0.549  -0.545  -0.536  -0.513
 -0.492  -0.492  -0.477  -0.471  -0.463  -0.423  -0.400  -0.398

          Ground-State Mulliken Net Atomic Charges

     Atom                 Charge (a.u.)    Spin (a.u.)
  --------------------------------------------------------
      1 C                    -0.170425       0.079743
      2 C                    -0.126772      -0.018654
      3 C                     0.136430       0.155430
      4 C                    -0.079036       0.243656
      5 C                    -0.127068      -0.017086
      6 C                    -0.169688       0.077689
      7 H                     0.201821      -0.004261
      8 H                     0.209754      -0.000211
      9 H                     0.212958      -0.011849
     10 H                     0.201752      -0.004484
     11 H                     0.209822      -0.000028
     12 C                    -0.127022      -0.018732
     13 C                    -0.169713       0.080821
     14 C                    -0.078604       0.242958
     15 C                     0.136557       0.154307
     16 C                    -0.170189       0.078722
     17 C                    -0.126480      -0.017087
     18 H                     0.209759      -0.000007
     19 H                     0.201698      -0.004668
     20 H                     0.209865      -0.000208
     21 H                     0.201685      -0.004435
     22 H                     0.212897      -0.011614
  --------------------------------------------------------
  Sum of atomic charges =     1.000000

                    Cartesian Multipole Moments
 -----------------------------------------------------------------
    Charge (ESU x 10^10)
                 4.8032
    Dipole Moment (Debye)
         X      -0.0132      Y       0.0029      Z       0.0008
       Tot       0.0135
    Quadrupole Moments (Debye-Ang)
        XX     -17.1421     XY      -0.0002     YY     -51.6982
        XZ       0.0016     YZ       0.0006     ZZ     -70.3900
    Octapole Moments (Debye-Ang^2)
       XXX      -0.1420    XXY       0.0178    XYY      -0.0052
       YYY       0.0037    XXZ      -0.0194    XYZ      15.2786
       YYZ       0.0058    XZZ      -0.0032    YZZ      -0.0006
       ZZZ       0.0015
    Hexadecapole Moments (Debye-Ang^3)
      XXXX   -1636.0095   XXXY      -0.0776   XXYY    -398.9643
      XYYY      -0.0088   YYYY    -444.0873   XXXZ       0.0095
      XXYZ      -0.0045   XYYZ       0.0031   YYYZ       0.0057
      XXZZ    -461.0705   XYZZ      -0.0038   YYZZ    -104.5593

 Total job time:  338.91s(wall), 338.96s(cpu)
        *  Thank you very much for using Q-Chem.  Have a nice day.  *
