User input:
--------------------------------------------------------------
$comment
DFT(BP86)/TZ(d,p) SP  biphenyl
Angle: 55.0
$end

$rem
JOBTYPE SP
EXCHANGE B
CORRELATION P86
BASIS TZ(d,p)
UNRESTRICTED TRUE
PRINT_ORBITALS FALSE
MAX_SCF_CYCLES 100
$end

$molecule
1 2
C	-1.481133	-1.211445	0.0
C	-2.878369	-1.221831	0.0
C	-0.747319	-0.004143	0.0
C	-3.595846	-0.020564	0.0
C	-2.891793	1.188615	0.0
C	-1.494461	1.195084	0.0
H	-0.988428	2.160976	0.0
H	-3.432896	2.137017	0.0
H	-4.687552	-0.02652	0.0
H	-0.962498	-2.170451	0.0
H	-3.408061	-2.176748	0.0
C	2.88880481322	-0.675575326601	-0.986243356331
C	1.49149673119	-0.682445459795	-0.985543853269
C	3.59551632482	0.0195807729655	0.00121259267182
C	0.747016	0.003728	0.0
C	1.48351900399	0.697889883295	0.98581198095
C	2.88075287114	0.707003133782	0.988316495205
H	3.42780335914	-1.21833555878	-1.76542904229
H	0.983633297378	-1.23735435406	-1.77420460364
H	3.41278510723	1.25611518954	1.76851681271
H	0.967045898465	1.24675487928	1.77354660969
H	4.68722182285	0.0254582190803	0.001394231515
$end
--------------------------------------------------------------

       Standard Nuclear Orientation (Angstroms)
    I     Atom         X            Y            Z
 ----------------------------------------------------
    1      C       1.487673    -1.067017    -0.555349
    2      C       2.884945    -1.069272    -0.556754
    3      C       0.747184     0.000204     0.000329
    4      C       3.595759    -0.000178    -0.000340
    5      C       2.885020     1.068856     0.556277
    6      C       1.487674     1.067636     0.555873
    7      H       0.976300     1.921861     1.000635
    8      H       3.420863     1.912782     0.995506
    9      H       4.687481    -0.000024    -0.000440
   10      H       0.974356    -1.920236    -0.999419
   11      H       3.419917    -1.913644    -0.996391
   12      C      -2.885021    -1.068855     0.556286
   13      C      -1.487697    -1.067668     0.555885
   14      C      -3.595716     0.000182    -0.000334
   15      C      -0.747171    -0.000256     0.000336
   16      C      -1.487651     1.066992    -0.555357
   17      C      -2.884914     1.069274    -0.556762
   18      H      -3.420892    -1.912752     0.995511
   19      H      -0.976653    -1.921504     1.000446
   20      H      -3.420093     1.913941    -0.996554
   21      H      -0.974341     1.920139    -0.999401
   22      H      -4.687437     0.000043    -0.000431
 ----------------------------------------------------

   19    -463.1351895860      4.44E-06 Convergence criterion met
 Total energy in the final basis set = -463.1351895860

                    Orbital Energies (a.u.)
 --------------------------------------------------------------

 Alpha MOs
 -- Occupied --
-10.115 -10.115 -10.092 -10.092 -10.085 -10.085 -10.085 -10.085
-10.077 -10.077 -10.077 -10.077  -0.974  -0.951  -0.888  -0.851
 -0.846  -0.837  -0.741  -0.728  -0.710  -0.695  -0.649  -0.620
 -0.591  -0.585  -0.576  -0.560  -0.549  -0.541  -0.538  -0.515
 -0.502  -0.494  -0.475  -0.469  -0.468  -0.428  -0.403  -0.401
 -0.399

 Beta MOs
 -- Occupied --
-10.113 -10.112 -10.089 -10.089 -10.084 -10.084 -10.084 -10.084
-10.077 -10.077 -10.077 -10.077  -0.969  -0.947  -0.882  -0.850
 -0.845  -0.830  -0.737  -0.725  -0.707  -0.692  -0.648  -0.618
 -0.589  -0.583  -0.572  -0.558  -0.547  -0.541  -0.538  -0.506
 -0.493  -0.493  -0.473  -0.468  -0.466  -0.414  -0.399  -0.397

          Ground-State Mulliken Net Atomic Charges

     Atom                 Charge (a.u.)    Spin (a.u.)
  --------------------------------------------------------
      1 C                    -0.159750       0.064365
      2 C                    -0.119435      -0.007120
      3 C                     0.086229       0.169639
      4 C                    -0.076910       0.235616
      5 C                    -0.120002      -0.004094
      6 C                    -0.158695       0.060951
      7 H                     0.207649      -0.003470
      8 H                     0.210245      -0.000559
      9 H                     0.212683      -0.011342
     10 H                     0.207630      -0.003790
     11 H                     0.210283      -0.000208
     12 C                    -0.119740      -0.005462
     13 C                    -0.159202       0.062672
     14 C                    -0.076897       0.235270
     15 C                     0.086388       0.169558
     16 C                    -0.159223       0.063379
     17 C                    -0.119639      -0.006169
     18 H                     0.210225      -0.000357
     19 H                     0.207549      -0.003654
     20 H                     0.210346      -0.000301
     21 H                     0.207585      -0.003675
     22 H                     0.212679      -0.011249
  --------------------------------------------------------
  Sum of atomic charges =     1.000000

                    Cartesian Multipole Moments
 -----------------------------------------------------------------
    Charge (ESU x 10^10)
                 4.8032
    Dipole Moment (Debye)
         X       0.0004      Y       0.0024      Z       0.0003
       Tot       0.0024
    Quadrupole Moments (Debye-Ang)
        XX     -17.2829     XY       0.0008     YY     -54.4122
        XZ       0.0004     YZ       0.0008     ZZ     -67.5205
    Octapole Moments (Debye-Ang^2)
       XXX       0.0103    XXY       0.0009    XYY       0.0003
       YYY       0.0032    XXZ      -0.0224    XYZ      21.8139
       YYZ       0.0062    XZZ       0.0006    YZZ       0.0005
       ZZZ       0.0022
    Hexadecapole Moments (Debye-Ang^3)
      XXXX   -1638.5106   XXXY      -0.0115   XXYY    -407.7863
      XYYY       0.0002   YYYY    -409.9482   XXXZ      -0.0110
      XXYZ      -0.0052   XYYZ       0.0049   YYYZ       0.0031
      XXZZ    -451.9810   XYZZ      -0.0061   YYZZ     -90.2813

 Total job time:  339.95s(wall), 340.00s(cpu)
        *  Thank you very much for using Q-Chem.  Have a nice day.  *
