User input:
--------------------------------------------------------------
$comment
DFT(BP86)/TZ(d,p) SP  biphenyl
Angle: 40.0
$end

$rem
JOBTYPE SP
EXCHANGE B
CORRELATION P86
BASIS TZ(d,p)
UNRESTRICTED TRUE
PRINT_ORBITALS FALSE
MAX_SCF_CYCLES 100
$end

$molecule
1 2
C	-1.481133	-1.211445	0.0
C	-2.878369	-1.221831	0.0
C	-0.747319	-0.004143	0.0
C	-3.595846	-0.020564	0.0
C	-2.891793	1.188615	0.0
C	-1.494461	1.195084	0.0
H	-0.988428	2.160976	0.0
H	-3.432896	2.137017	0.0
H	-4.687552	-0.02652	0.0
H	-0.962498	-2.170451	0.0
H	-3.408061	-2.176748	0.0
C	2.8900253589	-0.907299902281	-0.773903958374
C	1.49271641119	-0.914005682479	-0.773355059175
C	3.59551482415	0.0198656798504	0.000951519990067
C	0.747016	0.003728	0.0
C	1.48229899217	0.929513104399	0.773565458639
C	2.8795297598	0.939214807522	0.775530747919
H	3.42998820205	-1.63313510404	-1.38533001544
H	0.985829000657	-1.65421577707	-1.39221618773
H	3.410596443	1.67164022743	1.38775298512
H	0.964851009499	1.66346170214	1.39169986068
H	4.68722009739	0.0257858032451	0.00109405176869
$end
--------------------------------------------------------------

       Standard Nuclear Orientation (Angstroms)
    I     Atom         X            Y            Z
 ----------------------------------------------------
    1      C       1.487723    -1.130377    -0.411351
    2      C       2.884995    -1.132754    -0.412391
    3      C       0.747184     0.000222     0.000243
    4      C       3.595759    -0.000159    -0.000251
    5      C       2.884970     1.132361     0.412039
    6      C       1.487623     1.131057     0.411739
    7      H       0.976209     2.036011     0.741177
    8      H       3.420773     2.026412     0.737378
    9      H       4.687481     0.000012    -0.000325
   10      H       0.974447    -2.034274    -0.740277
   11      H       3.420007    -2.027271    -0.738033
   12      C      -2.884973    -1.132362     0.412044
   13      C      -1.487649    -1.131093     0.411747
   14      C      -3.595716     0.000163    -0.000248
   15      C      -0.747171    -0.000277     0.000249
   16      C      -1.487699     1.130352    -0.411356
   17      C      -2.884963     1.132759    -0.412397
   18      H      -3.420806    -2.026385     0.737380
   19      H      -0.976566    -2.035636     0.741036
   20      H      -3.420180     2.027589    -0.738153
   21      H      -0.974427     2.034175    -0.740262
   22      H      -4.687437     0.000007    -0.000320
 ----------------------------------------------------

   19    -463.1405559091      9.11E-06 Convergence criterion met
 Total energy in the final basis set = -463.1405559091

                    Orbital Energies (a.u.)
 --------------------------------------------------------------

 Alpha MOs
 -- Occupied --
-10.115 -10.115 -10.092 -10.092 -10.086 -10.086 -10.086 -10.086
-10.078 -10.078 -10.077 -10.077  -0.975  -0.951  -0.888  -0.853
 -0.846  -0.837  -0.741  -0.731  -0.707  -0.696  -0.651  -0.619
 -0.593  -0.587  -0.571  -0.559  -0.551  -0.544  -0.537  -0.520
 -0.501  -0.493  -0.478  -0.471  -0.466  -0.434  -0.403  -0.402
 -0.395

 Beta MOs
 -- Occupied --
-10.113 -10.113 -10.089 -10.089 -10.085 -10.085 -10.085 -10.085
-10.078 -10.078 -10.077 -10.077  -0.970  -0.947  -0.883  -0.851
 -0.844  -0.830  -0.738  -0.729  -0.704  -0.693  -0.650  -0.617
 -0.591  -0.585  -0.567  -0.557  -0.549  -0.543  -0.537  -0.511
 -0.492  -0.492  -0.476  -0.470  -0.464  -0.421  -0.399  -0.398

          Ground-State Mulliken Net Atomic Charges

     Atom                 Charge (a.u.)    Spin (a.u.)
  --------------------------------------------------------
      1 C                    -0.167642       0.075654
      2 C                    -0.124940      -0.014462
      3 C                     0.123323       0.157414
      4 C                    -0.078050       0.241439
      5 C                    -0.124955      -0.014328
      6 C                    -0.167848       0.075306
      7 H                     0.204350      -0.004195
      8 H                     0.209832      -0.000243
      9 H                     0.212848      -0.011592
     10 H                     0.204220      -0.004200
     11 H                     0.209898      -0.000251
     12 C                    -0.125285      -0.015229
     13 C                    -0.167922       0.075339
     14 C                    -0.078821       0.241919
     15 C                     0.122636       0.157336
     16 C                    -0.167533       0.076075
     17 C                    -0.125439      -0.015353
     18 H                     0.209868      -0.000162
     19 H                     0.204311      -0.004195
     20 H                     0.209992      -0.000207
     21 H                     0.204276      -0.004279
     22 H                     0.212881      -0.011787
  --------------------------------------------------------
  Sum of atomic charges =     1.000000

                    Cartesian Multipole Moments
 -----------------------------------------------------------------
    Charge (ESU x 10^10)
                 4.8032
    Dipole Moment (Debye)
         X       0.0255      Y       0.0010      Z      -0.0007
       Tot       0.0255
    Quadrupole Moments (Debye-Ang)
        XX     -17.2050     XY       0.0012     YY     -52.2875
        XZ       0.0004     YZ      -0.0007     ZZ     -69.7715
    Octapole Moments (Debye-Ang^2)
       XXX       0.2631    XXY       0.0020    XYY       0.0059
       YYY       0.0014    XXZ      -0.0152    XYZ      17.1219
       YYZ       0.0055    XZZ       0.0099    YZZ      -0.0008
       ZZZ       0.0003
    Hexadecapole Moments (Debye-Ang^3)
      XXXX   -1637.0494   XXXY       0.0246   XXYY    -400.9421
      XYYY      -0.0051   YYYY    -437.1254   XXXZ      -0.0008
      XXYZ      -0.0085   XYYZ       0.0031   YYYZ      -0.0075
      XXZZ    -459.1443   XYZZ      -0.0036   YYZZ    -101.0658

 Total job time:  339.13s(wall), 339.28s(cpu)
        *  Thank you very much for using Q-Chem.  Have a nice day.  *
