User input:
--------------------------------------------------------------
$comment
DFT(BP86)/TZ(d,p) SP  biphenyl
Angle: 70.0
$end

$rem
JOBTYPE SP
EXCHANGE B
CORRELATION P86
BASIS TZ(d,p)
UNRESTRICTED TRUE
PRINT_ORBITALS FALSE
MAX_SCF_CYCLES 100
$end

$molecule
1 2
C	-1.481133	-1.211445	0.0
C	-2.878369	-1.221831	0.0
C	-0.747319	-0.004143	0.0
C	-3.595846	-0.020564	0.0
C	-2.891793	1.188615	0.0
C	-1.494461	1.195084	0.0
H	-0.988428	2.160976	0.0
H	-3.432896	2.137017	0.0
H	-4.687552	-0.02652	0.0
H	-0.962498	-2.170451	0.0
H	-3.408061	-2.176748	0.0
C	2.88733638717	-0.396789856494	-1.1313718994
C	1.49002934664	-0.403857721099	-1.13056946245
C	3.59551813025	0.0192380044025	0.0013910291669
C	0.747016	0.003728	0.0
C	1.48498678776	0.419226351843	1.13087704589
C	2.8822243839	0.427631640974	1.13375010661
H	3.42517479696	-0.719294462754	-2.02521699741
H	0.980991669189	-0.735832633973	-2.03528390783
H	3.41541826682	0.756201260733	2.02875914212
H	0.96968654696	0.74541915705	2.03452908818
H	4.68722389874	0.0250641059176	0.00159939668764
$end
--------------------------------------------------------------

       Standard Nuclear Orientation (Angstroms)
    I     Atom         X            Y            Z
 ----------------------------------------------------
    1      C       1.487615    -0.985402    -0.689844
    2      C       2.884887    -0.987495    -0.691589
    3      C       0.747184     0.000182     0.000408
    4      C       3.595758    -0.000193    -0.000422
    5      C       2.885078     0.987065     0.690996
    6      C       1.487732     0.985950     0.690494
    7      H       0.976404     1.774830     1.242969
    8      H       3.420967     1.766425     1.236597
    9      H       4.687481    -0.000060    -0.000547
   10      H       0.974252    -1.773345    -1.241459
   11      H       3.419813    -1.767277    -1.237698
   12      C      -2.885076    -0.987059     0.691011
   13      C      -1.487751    -0.985974     0.690513
   14      C      -3.595716     0.000197    -0.000414
   15      C      -0.747171    -0.000230     0.000417
   16      C      -1.487597     0.985374    -0.689857
   17      C      -2.884860     0.987493    -0.691602
   18      H      -3.420990    -1.766390     1.236611
   19      H      -0.976751    -1.774491     1.242740
   20      H      -3.419995     1.767542    -1.237905
   21      H      -0.974242     1.773247    -1.241442
   22      H      -4.687437     0.000077    -0.000535
 ----------------------------------------------------

   24    -463.1283114720      4.02E-06 Convergence criterion met
 Total energy in the final basis set = -463.1283114720

                    Orbital Energies (a.u.)
 --------------------------------------------------------------

 Alpha MOs
 -- Occupied --
-10.115 -10.115 -10.091 -10.091 -10.084 -10.084 -10.084 -10.084
-10.077 -10.077 -10.077 -10.077  -0.974  -0.950  -0.888  -0.850
 -0.847  -0.836  -0.741  -0.724  -0.714  -0.695  -0.648  -0.620
 -0.589  -0.583  -0.580  -0.560  -0.548  -0.540  -0.538  -0.510
 -0.503  -0.495  -0.473  -0.470  -0.468  -0.421  -0.404  -0.404
 -0.399

 Beta MOs
 -- Occupied --
-10.112 -10.112 -10.088 -10.088 -10.084 -10.084 -10.084 -10.083
-10.077 -10.077 -10.077 -10.077  -0.968  -0.946  -0.882  -0.848
 -0.845  -0.829  -0.737  -0.721  -0.710  -0.692  -0.647  -0.618
 -0.586  -0.581  -0.576  -0.558  -0.546  -0.539  -0.538  -0.502
 -0.495  -0.493  -0.471  -0.467  -0.467  -0.407  -0.400  -0.396

          Ground-State Mulliken Net Atomic Charges

     Atom                 Charge (a.u.)    Spin (a.u.)
  --------------------------------------------------------
      1 C                    -0.155546       0.046437
      2 C                    -0.117031       0.003100
      3 C                     0.073562       0.188500
      4 C                    -0.076998       0.230261
      5 C                    -0.117074       0.003496
      6 C                    -0.155554       0.045945
      7 H                     0.207668      -0.002903
      8 H                     0.210506      -0.000246
      9 H                     0.212567      -0.011105
     10 H                     0.207591      -0.002923
     11 H                     0.210568      -0.000239
     12 C                    -0.116763       0.003205
     13 C                    -0.155768       0.046866
     14 C                    -0.077001       0.229530
     15 C                     0.073266       0.187561
     16 C                    -0.155686       0.046216
     17 C                    -0.117108       0.003831
     18 H                     0.210480      -0.000236
     19 H                     0.207576      -0.003029
     20 H                     0.210627      -0.000335
     21 H                     0.207567      -0.002915
     22 H                     0.212551      -0.011015
  --------------------------------------------------------
  Sum of atomic charges =     1.000000

                    Cartesian Multipole Moments
 -----------------------------------------------------------------
    Charge (ESU x 10^10)
                 4.8032
    Dipole Moment (Debye)
         X       0.0034      Y       0.0000      Z      -0.0006
       Tot       0.0034
    Quadrupole Moments (Debye-Ang)
        XX     -17.3395     XY       0.0038     YY     -57.0141
        XZ      -0.0006     YZ       0.0016     ZZ     -64.8412
    Octapole Moments (Debye-Ang^2)
       XXX       0.0251    XXY      -0.0001    XYY       0.0046
       YYY      -0.0005    XXZ      -0.0169    XYZ      25.0317
       YYZ       0.0061    XZZ       0.0038    YZZ       0.0005
       ZZZ       0.0031
    Hexadecapole Moments (Debye-Ang^3)
      XXXX   -1639.9124   XXXY       0.0495   XXYY    -416.1380
      XYYY       0.0016   YYYY    -373.5750   XXXZ      -0.0036
      XXYZ      -0.0041   XYYZ       0.0044   YYYZ       0.0054
      XXZZ    -443.2254   XYZZ      -0.0101   YYZZ     -81.4108

 Total job time:  409.73s(wall), 409.71s(cpu)
        *  Thank you very much for using Q-Chem.  Have a nice day.  *
