User input:
--------------------------------------------------------------
$comment
DFT(BP86)/TZ(d,p) SP  biphenyl
Angle: 25.0
$end

$rem
JOBTYPE SP
EXCHANGE B
CORRELATION P86
BASIS TZ(d,p)
UNRESTRICTED TRUE
PRINT_ORBITALS FALSE
MAX_SCF_CYCLES 100
$end

$molecule
1 2
C	-1.481133	-1.211445	0.0
C	-2.878369	-1.221831	0.0
C	-0.747319	-0.004143	0.0
C	-3.595846	-0.020564	0.0
C	-2.891793	1.188615	0.0
C	-1.494461	1.195084	0.0
H	-0.988428	2.160976	0.0
H	-3.432896	2.137017	0.0
H	-4.687552	-0.02652	0.0
H	-0.962498	-2.170451	0.0
H	-3.408061	-2.176748	0.0
C	2.89091484605	-1.07617193664	-0.50882428459
C	1.49360526746	-1.08275794265	-0.508463395827
C	3.59551373052	0.0200733091236	0.000625602793448
C	0.747016	0.003728	0.0
C	1.48140989407	1.09831127541	0.508601728698
C	2.87863840289	1.10844182038	0.509893861787
H	3.43158043224	-1.935425195	-0.910823037409
H	0.987429145478	-1.9580084859	-0.915350539367
H	3.40900142796	1.97445902976	0.912416084971
H	0.963251458119	1.96714174428	0.915011066054
H	4.68721883994	0.0260245340926	0.000719314202341
$end
--------------------------------------------------------------

       Standard Nuclear Orientation (Angstroms)
    I     Atom         X            Y            Z
 ----------------------------------------------------
    1      C       1.487761    -1.174398    -0.260314
    2      C       2.885034    -1.176859    -0.260972
    3      C       0.747184     0.000235     0.000154
    4      C       3.595759    -0.000142    -0.000159
    5      C       2.884931     1.176487     0.260750
    6      C       1.487585     1.175123     0.260560
    7      H       0.976140     2.115324     0.469037
    8      H       3.420704     2.105367     0.466633
    9      H       4.687481     0.000042    -0.000206
   10      H       0.974516    -2.113507    -0.468467
   11      H       3.420076    -2.106215    -0.467048
   12      C      -2.884937    -1.176489     0.260752
   13      C      -1.487612    -1.175162     0.260564
   14      C      -3.595716     0.000147    -0.000157
   15      C      -0.747171    -0.000292     0.000157
   16      C      -1.487736     1.174373    -0.260317
   17      C      -2.884999     1.176865    -0.260976
   18      H      -3.420740    -2.105341     0.466634
   19      H      -0.976501    -2.114936     0.468947
   20      H      -3.420245     2.106548    -0.467123
   21      H      -0.974493     2.113406    -0.468458
   22      H      -4.687437    -0.000022    -0.000202
 ----------------------------------------------------

   19    -463.1431320247      5.57E-06 Convergence criterion met
 Total energy in the final basis set = -463.1431320247

                    Orbital Energies (a.u.)
 --------------------------------------------------------------

 Alpha MOs
 -- Occupied --
-10.116 -10.115 -10.092 -10.092 -10.087 -10.087 -10.087 -10.087
-10.078 -10.078 -10.078 -10.078  -0.975  -0.952  -0.889  -0.855
 -0.846  -0.837  -0.742  -0.735  -0.704  -0.696  -0.653  -0.618
 -0.595  -0.590  -0.566  -0.557  -0.552  -0.548  -0.536  -0.525
 -0.501  -0.492  -0.481  -0.473  -0.463  -0.439  -0.405  -0.402
 -0.392

 Beta MOs
 -- Occupied --
-10.114 -10.113 -10.089 -10.089 -10.086 -10.086 -10.086 -10.086
-10.078 -10.078 -10.078 -10.078  -0.970  -0.948  -0.883  -0.853
 -0.844  -0.830  -0.738  -0.732  -0.702  -0.693  -0.652  -0.616
 -0.593  -0.588  -0.563  -0.556  -0.550  -0.547  -0.535  -0.516
 -0.491  -0.491  -0.480  -0.472  -0.461  -0.426  -0.401  -0.398

          Ground-State Mulliken Net Atomic Charges

     Atom                 Charge (a.u.)    Spin (a.u.)
  --------------------------------------------------------
      1 C                    -0.169982       0.084652
      2 C                    -0.129604      -0.022545
      3 C                     0.158185       0.152273
      4 C                    -0.079837       0.245404
      5 C                    -0.129968      -0.020691
      6 C                    -0.169564       0.082171
      7 H                     0.194501      -0.004530
      8 H                     0.209523      -0.000201
      9 H                     0.213032      -0.011776
     10 H                     0.194399      -0.004791
     11 H                     0.209573       0.000030
     12 C                    -0.129672      -0.021830
     13 C                    -0.170025       0.083074
     14 C                    -0.080050       0.245832
     15 C                     0.158070       0.153001
     16 C                    -0.169641       0.082346
     17 C                    -0.130075      -0.021239
     18 H                     0.209516      -0.000059
     19 H                     0.194476      -0.004596
     20 H                     0.209688      -0.000135
     21 H                     0.194418      -0.004478
     22 H                     0.213038      -0.011912
  --------------------------------------------------------
  Sum of atomic charges =     1.000000

                    Cartesian Multipole Moments
 -----------------------------------------------------------------
    Charge (ESU x 10^10)
                 4.8032
    Dipole Moment (Debye)
         X       0.0085      Y       0.0007      Z       0.0002
       Tot       0.0085
    Quadrupole Moments (Debye-Ang)
        XX     -17.0816     XY       0.0029     YY     -50.7687
        XZ      -0.0006     YZ      -0.0002     ZZ     -71.4068
    Octapole Moments (Debye-Ang^2)
       XXX       0.0930    XXY      -0.0079    XYY      -0.0038
       YYY       0.0027    XXZ      -0.0100    XYZ      11.2370
       YYZ       0.0040    XZZ       0.0018    YZZ      -0.0013
       ZZZ       0.0003
    Hexadecapole Moments (Debye-Ang^3)
      XXXX   -1634.8408   XXXY      -0.0023   XXYY    -395.8533
      XYYY      -0.0101   YYYY    -455.2851   XXXZ      -0.0089
      XXYZ      -0.0053   XYYZ       0.0024   YYYZ      -0.0029
      XXZZ    -464.3030   XYZZ      -0.0004   YYZZ    -110.7691

 Total job time:  339.49s(wall), 339.45s(cpu)
        *  Thank you very much for using Q-Chem.  Have a nice day.  *
