User input:
--------------------------------------------------------------
$comment
DFT(BP86)/TZ(d,p) SP  biphenyl
Angle: 90.0
$end

$rem
JOBTYPE SP
EXCHANGE B
CORRELATION P86
BASIS TZ(d,p)
UNRESTRICTED TRUE
PRINT_ORBITALS FALSE
MAX_SCF_CYCLES 100
$end

$molecule
1 2
C	-1.481133	-1.211445	0.0
C	-2.878369	-1.221831	0.0
C	-0.747319	-0.004143	0.0
C	-3.595846	-0.020564	0.0
C	-2.891793	1.188615	0.0
C	-1.494461	1.195084	0.0
H	-0.988428	2.160976	0.0
H	-3.432896	2.137017	0.0
H	-4.687552	-0.02652	0.0
H	-0.962498	-2.170451	0.0
H	-3.408061	-2.176748	0.0
C	2.88516744898	0.0149901266683	-1.20398082774
C	1.48786194679	0.00763020295127	-1.20312689218
C	3.59552079698	0.0187317182138	0.00148030232028
C	0.747016	0.003728	0.0
C	1.48715477727	0.00762647812967	1.20345421564
C	2.88439788131	0.0149860731816	1.206511663
H	3.42129228009	0.0178140172589	-2.15519091309
H	0.977089853178	0.00493985095602	-2.16590389539
H	3.41930757429	0.0178035633651	2.15896038475
H	0.973586915916	0.00492140019419	2.1651006331
H	4.68722696492	0.0244819812056	0.00170204240436
$end
--------------------------------------------------------------

       Standard Nuclear Orientation (Angstroms)
    I     Atom         X            Y            Z
 ----------------------------------------------------
    1      C       1.487535    -1.202837     0.003628
    2      C       2.884807    -1.205646     0.003402
    3      C       0.747184     0.000462     0.000248
    4      C       3.595758    -0.000512    -0.000225
    5      C       2.885158     1.204827    -0.003616
    6      C       1.487812     1.203718    -0.003379
    7      H       0.976548     2.166848    -0.006098
    8      H       3.421110     2.156145    -0.006476
    9      H       4.687481    -0.000547    -0.000408
   10      H       0.974108    -2.164638     0.006514
   11      H       3.419670    -2.157673     0.006085
   12      C      -2.885151     0.003403     1.204833
   13      C      -1.487826     0.003618     1.203745
   14      C      -3.595716    -0.000217    -0.000504
   15      C      -0.747171     0.000230     0.000499
   16      C      -1.487522    -0.003389    -1.202826
   17      C      -2.884785    -0.003615    -1.205649
   18      H      -3.421124     0.006089     2.156129
   19      H      -0.976886     0.006501     2.166432
   20      H      -3.419861    -0.006472    -2.158004
   21      H      -0.974107    -0.006109    -2.164555
   22      H      -4.687437    -0.000388    -0.000543
 ----------------------------------------------------

   81    -463.1197647914      6.08E-06 Convergence criterion met
 Total energy in the final basis set = -463.1197647914

                    Orbital Energies (a.u.)
 --------------------------------------------------------------

 Alpha MOs
 -- Occupied --
-10.092 -10.092 -10.092 -10.090 -10.089 -10.088 -10.087 -10.086
-10.085 -10.083 -10.070 -10.070  -0.968  -0.949  -0.876  -0.855
 -0.855  -0.825  -0.737  -0.716  -0.715  -0.695  -0.647  -0.617
 -0.581  -0.581  -0.579  -0.562  -0.543  -0.543  -0.540  -0.505
 -0.505  -0.491  -0.469  -0.469  -0.465  -0.415  -0.410  -0.398
 -0.397

 Beta MOs
 -- Occupied --
-10.093 -10.092 -10.090 -10.088 -10.087 -10.086 -10.085 -10.084
-10.083 -10.082 -10.071 -10.070  -0.964  -0.945  -0.875  -0.849
 -0.849  -0.824  -0.735  -0.712  -0.712  -0.693  -0.645  -0.615
 -0.579  -0.579  -0.577  -0.561  -0.541  -0.541  -0.540  -0.496
 -0.496  -0.490  -0.468  -0.468  -0.463  -0.399  -0.394  -0.394

          Ground-State Mulliken Net Atomic Charges

     Atom                 Charge (a.u.)    Spin (a.u.)
  --------------------------------------------------------
      1 C                    -0.130433       0.167626
      2 C                    -0.095702       0.147135
      3 C                     0.029044      -0.049090
      4 C                    -0.125472      -0.051245
      5 C                    -0.088918       0.173417
      6 C                    -0.136650       0.141934
      7 H                     0.208286      -0.007112
      8 H                     0.211471      -0.008528
      9 H                     0.209242       0.001313
     10 H                     0.208476      -0.008168
     11 H                     0.211310      -0.007459
     12 C                    -0.087738       0.192946
     13 C                    -0.137813       0.118178
     14 C                    -0.125555      -0.046601
     15 C                     0.028674      -0.044135
     16 C                    -0.129575       0.186312
     17 C                    -0.097462       0.123392
     18 H                     0.211690      -0.009586
     19 H                     0.207929      -0.005943
     20 H                     0.211116      -0.006273
     21 H                     0.208756      -0.009154
     22 H                     0.209326       0.001043
  --------------------------------------------------------
  Sum of atomic charges =     1.000000

                    Cartesian Multipole Moments
 -----------------------------------------------------------------
    Charge (ESU x 10^10)
                 4.8032
    Dipole Moment (Debye)
         X       0.0091      Y       0.0032      Z       0.0083
       Tot       0.0127
    Quadrupole Moments (Debye-Ang)
        XX     -20.8795     XY       0.0996     YY     -59.6059
        XZ      -0.1903     YZ      -0.0006     ZZ     -59.6248
    Octapole Moments (Debye-Ang^2)
       XXX      -0.0411    XXY       0.4109    XYY      29.6362
       YYY       0.0192    XXZ       0.8081    XYZ      -0.1720
       YYZ       0.0245    XZZ     -29.5947    YZZ       0.0079
       ZZZ       0.0313
    Hexadecapole Moments (Debye-Ang^3)
      XXXX   -1750.2205   XXXY       1.5783   XXYY    -424.3316
      XYYY       0.2245   YYYY    -267.0912   XXXZ      -3.1038
      XXYZ      -0.0070   XYYZ      -0.2467   YYYZ      -0.2336
      XXZZ    -424.4446   XYZZ       0.1097   YYZZ    -115.3188

 Total job time:  1251.52s(wall), 1251.97s(cpu)
        *  Thank you very much for using Q-Chem.  Have a nice day.  *
