User input:
--------------------------------------------------------------
$comment
DFT(BP86)/TZ(d,p) SP  biphenyl
Angle: 60.0
$end

$rem
JOBTYPE SP
EXCHANGE B
CORRELATION P86
BASIS TZ(d,p)
UNRESTRICTED TRUE
PRINT_ORBITALS FALSE
MAX_SCF_CYCLES 100
$end

$molecule
1 2
C	-1.481133	-1.211445	0.0
C	-2.878369	-1.221831	0.0
C	-0.747319	-0.004143	0.0
C	-3.595846	-0.020564	0.0
C	-2.891793	1.188615	0.0
C	-1.494461	1.195084	0.0
H	-0.988428	2.160976	0.0
H	-3.432896	2.137017	0.0
H	-4.687552	-0.02652	0.0
H	-0.962498	-2.170451	0.0
H	-3.408061	-2.176748	0.0
C	2.88833822449	-0.586991936666	-1.0426779825
C	1.4910304734	-0.593924898524	-1.0419384526
C	3.59551689849	0.0194718591069	0.00128197941464
C	0.747016	0.003728	0.0
C	1.48398538864	0.609345239065	1.04222192304
C	2.88122044066	0.618233536591	1.04486975012
H	3.42696814005	-1.05976649137	-1.86645008074
H	0.982793926589	-1.07799707452	-1.87572779556
H	3.41362178715	1.09726878168	1.86971453896
H	0.967884957958	1.0874567001	1.87503215001
H	4.68722248246	0.0253329906028	0.0014740119605
$end
--------------------------------------------------------------

       Standard Nuclear Orientation (Angstroms)
    I     Atom         X            Y            Z
 ----------------------------------------------------
    1      C       1.487654    -1.041778    -0.601354
    2      C       2.884926    -1.043983    -0.602875
    3      C       0.747184     0.000197     0.000356
    4      C       3.595759    -0.000183    -0.000368
    5      C       2.885039     1.043561     0.602359
    6      C       1.487693     1.042374     0.601921
    7      H       0.976334     1.876391     1.083527
    8      H       3.420897     1.867520     1.077973
    9      H       4.687481    -0.000037    -0.000476
   10      H       0.974323    -1.874810    -1.082211
   11      H       3.419883    -1.868380    -1.078932
   12      C      -2.885039    -1.043559     0.602369
   13      C      -1.487714    -1.042404     0.601935
   14      C      -3.595716     0.000187    -0.000361
   15      C      -0.747171    -0.000248     0.000364
   16      C      -1.487634     1.041752    -0.601363
   17      C      -2.884897     1.043984    -0.602885
   18      H      -3.420924    -1.867489     1.077980
   19      H      -0.976685    -1.876040     1.083324
   20      H      -3.420062     1.868668    -1.079109
   21      H      -0.974309     1.874713    -1.082192
   22      H      -4.687437     0.000055    -0.000467
 ----------------------------------------------------

   20    -463.1329765367      9.28E-06 Convergence criterion met
 Total energy in the final basis set = -463.1329765367

                    Orbital Energies (a.u.)
 --------------------------------------------------------------

 Alpha MOs
 -- Occupied --
-10.115 -10.115 -10.091 -10.091 -10.085 -10.085 -10.085 -10.085
-10.077 -10.077 -10.077 -10.077  -0.974  -0.951  -0.888  -0.851
 -0.846  -0.836  -0.741  -0.726  -0.711  -0.695  -0.649  -0.620
 -0.590  -0.584  -0.577  -0.560  -0.549  -0.541  -0.538  -0.513
 -0.502  -0.494  -0.474  -0.469  -0.469  -0.426  -0.403  -0.401
 -0.400

 Beta MOs
 -- Occupied --
-10.113 -10.112 -10.088 -10.088 -10.084 -10.084 -10.084 -10.084
-10.077 -10.077 -10.077 -10.077  -0.969  -0.947  -0.882  -0.849
 -0.845  -0.830  -0.737  -0.724  -0.708  -0.692  -0.648  -0.618
 -0.588  -0.582  -0.573  -0.558  -0.547  -0.540  -0.538  -0.505
 -0.493  -0.493  -0.473  -0.468  -0.466  -0.412  -0.400  -0.397

          Ground-State Mulliken Net Atomic Charges

     Atom                 Charge (a.u.)    Spin (a.u.)
  --------------------------------------------------------
      1 C                    -0.158031       0.062514
      2 C                    -0.118086      -0.006574
      3 C                     0.079332       0.174255
      4 C                    -0.076830       0.233727
      5 C                    -0.118976      -0.000997
      6 C                    -0.156567       0.055668
      7 H                     0.207793      -0.003279
      8 H                     0.210338      -0.000530
      9 H                     0.212599      -0.011176
     10 H                     0.207778      -0.003971
     11 H                     0.210335       0.000024
     12 C                    -0.118315      -0.003735
     13 C                    -0.157220       0.058897
     14 C                    -0.076847       0.233262
     15 C                     0.079417       0.175682
     16 C                    -0.157065       0.056676
     17 C                    -0.118417      -0.001944
     18 H                     0.210277      -0.000118
     19 H                     0.207711      -0.003581
     20 H                     0.210427      -0.000409
     21 H                     0.207745      -0.003290
     22 H                     0.212604      -0.011099
  --------------------------------------------------------
  Sum of atomic charges =     1.000000

                    Cartesian Multipole Moments
 -----------------------------------------------------------------
    Charge (ESU x 10^10)
                 4.8032
    Dipole Moment (Debye)
         X      -0.0065      Y       0.0021      Z       0.0003
       Tot       0.0069
    Quadrupole Moments (Debye-Ang)
        XX     -17.3170     XY       0.0002     YY     -55.2370
        XZ      -0.0012     YZ      -0.0002     ZZ     -66.6652
    Octapole Moments (Debye-Ang^2)
       XXX      -0.0482    XXY       0.0032    XYY      -0.0069
       YYY       0.0030    XXZ      -0.0257    XYZ      23.0586
       YYZ       0.0066    XZZ      -0.0043    YZZ       0.0003
       ZZZ       0.0030
    Hexadecapole Moments (Debye-Ang^3)
      XXXX   -1639.3118   XXXY      -0.0193   XXYY    -410.4520
      XYYY       0.0034   YYYY    -398.8589   XXXZ      -0.0180
      XXYZ      -0.0078   XYYZ       0.0058   YYYZ       0.0032
      XXZZ    -449.2247   XYZZ      -0.0066   YYZZ     -86.9836

 Total job time:  356.80s(wall), 356.93s(cpu)
        *  Thank you very much for using Q-Chem.  Have a nice day.  *
