User input:
--------------------------------------------------------------
$comment
DFT(BP86)/TZ(d,p) SP  biphenyl
Angle: 45.0
$end

$rem
JOBTYPE SP
EXCHANGE B
CORRELATION P86
BASIS TZ(d,p)
UNRESTRICTED TRUE
PRINT_ORBITALS FALSE
MAX_SCF_CYCLES 100
$end

$molecule
1 2
C	-1.481133	-1.211445	0.0
C	-2.878369	-1.221831	0.0
C	-0.747319	-0.004143	0.0
C	-3.595846	-0.020564	0.0
C	-2.891793	1.188615	0.0
C	-1.494461	1.195084	0.0
H	-0.988428	2.160976	0.0
H	-3.432896	2.137017	0.0
H	-4.687552	-0.02652	0.0
H	-0.962498	-2.170451	0.0
H	-3.408061	-2.176748	0.0
C	2.88965160271	-0.836341071604	-0.851343007716
C	1.49234292009	-0.84309718007	-0.850739184089
C	3.59551528368	0.0197784355029	0.00104673180888
C	0.747016	0.003728	0.0
C	1.48267258488	0.858585310579	0.850970636727
C	2.87990430164	0.868106817402	0.853132578488
H	3.42931915822	-1.50611495259	-1.5239501094
H	0.985156631157	-1.52656423625	-1.53152533183
H	3.411266657	1.54439791522	1.52661552837
H	0.96552312964	1.53585750306	1.53095733961
H	4.68722062576	0.0256854902368	0.00120352572599
$end
--------------------------------------------------------------

       Standard Nuclear Orientation (Angstroms)
    I     Atom         X            Y            Z
 ----------------------------------------------------
    1      C       1.487707    -1.111359    -0.460257
    2      C       2.884980    -1.113700    -0.461421
    3      C       0.747184     0.000216     0.000272
    4      C       3.595759    -0.000165    -0.000281
    5      C       2.884986     1.113298     0.461027
    6      C       1.487639     1.112020     0.460691
    7      H       0.976237     2.001747     0.829297
    8      H       3.420801     1.992304     0.825046
    9      H       4.687481     0.000000    -0.000364
   10      H       0.974419    -2.000044    -0.828289
   11      H       3.419979    -1.993165    -0.825779
   12      C      -2.884988    -1.113299     0.461033
   13      C      -1.487664    -1.112055     0.460700
   14      C      -3.595716     0.000170    -0.000277
   15      C      -0.747171    -0.000270     0.000278
   16      C      -1.487684     1.111334    -0.460263
   17      C      -2.884948     1.113704    -0.461428
   18      H      -3.420833    -1.992276     0.825049
   19      H      -0.976593    -2.001378     0.829139
   20      H      -3.420153     1.993477    -0.825914
   21      H      -0.974400     1.999946    -0.828273
   22      H      -4.687437     0.000019    -0.000357
 ----------------------------------------------------

   20    -463.1390570619      3.48E-06 Convergence criterion met
 Total energy in the final basis set = -463.1390570619

                    Orbital Energies (a.u.)
 --------------------------------------------------------------

 Alpha MOs
 -- Occupied --
-10.115 -10.115 -10.092 -10.092 -10.086 -10.086 -10.086 -10.086
-10.077 -10.077 -10.077 -10.077  -0.974  -0.951  -0.888  -0.853
 -0.846  -0.837  -0.741  -0.730  -0.708  -0.696  -0.650  -0.619
 -0.593  -0.586  -0.572  -0.559  -0.550  -0.543  -0.538  -0.518
 -0.501  -0.494  -0.477  -0.471  -0.467  -0.432  -0.403  -0.402
 -0.396

 Beta MOs
 -- Occupied --
-10.113 -10.113 -10.089 -10.089 -10.085 -10.085 -10.085 -10.085
-10.077 -10.077 -10.077 -10.077  -0.969  -0.947  -0.882  -0.851
 -0.845  -0.830  -0.738  -0.728  -0.705  -0.693  -0.649  -0.617
 -0.590  -0.584  -0.569  -0.557  -0.548  -0.542  -0.537  -0.509
 -0.492  -0.492  -0.475  -0.470  -0.465  -0.419  -0.399  -0.399

          Ground-State Mulliken Net Atomic Charges

     Atom                 Charge (a.u.)    Spin (a.u.)
  --------------------------------------------------------
      1 C                    -0.164842       0.072617
      2 C                    -0.123136      -0.012839
      3 C                     0.108700       0.160447
      4 C                    -0.077905       0.240380
      5 C                    -0.123251      -0.012592
      6 C                    -0.164854       0.072184
      7 H                     0.206186      -0.004087
      8 H                     0.209995      -0.000214
      9 H                     0.212799      -0.011624
     10 H                     0.206084      -0.004106
     11 H                     0.210058      -0.000201
     12 C                    -0.122970      -0.012779
     13 C                    -0.164843       0.072367
     14 C                    -0.077705       0.240613
     15 C                     0.108579       0.159988
     16 C                    -0.164862       0.073461
     17 C                    -0.123027      -0.013390
     18 H                     0.209973      -0.000153
     19 H                     0.206066      -0.004085
     20 H                     0.210119      -0.000126
     21 H                     0.206047      -0.004204
     22 H                     0.212787      -0.011658
  --------------------------------------------------------
  Sum of atomic charges =     1.000000

                    Cartesian Multipole Moments
 -----------------------------------------------------------------
    Charge (ESU x 10^10)
                 4.8032
    Dipole Moment (Debye)
         X      -0.0034      Y       0.0000      Z      -0.0001
       Tot       0.0034
    Quadrupole Moments (Debye-Ang)
        XX     -17.2222     XY       0.0021     YY     -52.9304
        XZ      -0.0001     YZ       0.0007     ZZ     -69.0812
    Octapole Moments (Debye-Ang^2)
       XXX      -0.0308    XXY      -0.0009    XYY      -0.0022
       YYY       0.0006    XXZ      -0.0174    XYZ      18.8390
       YYZ       0.0059    XZZ      -0.0009    YZZ      -0.0007
       ZZZ       0.0010
    Hexadecapole Moments (Debye-Ang^3)
      XXXX   -1637.4950   XXXY       0.0071   XXYY    -403.0124
      XYYY      -0.0051   YYYY    -429.0725   XXXZ      -0.0015
      XXYZ      -0.0055   XYYZ       0.0038   YYYZ       0.0036
      XXZZ    -456.9615   XYZZ      -0.0049   YYZZ     -97.4360

 Total job time:  353.28s(wall), 353.26s(cpu)
        *  Thank you very much for using Q-Chem.  Have a nice day.  *
