User input:
--------------------------------------------------------------
$comment
DFT(BP86)/TZ(d,p) SP  biphenyl
Angle: 15.0
$end

$rem
JOBTYPE SP
EXCHANGE B
CORRELATION P86
BASIS TZ(d,p)
UNRESTRICTED TRUE
PRINT_ORBITALS FALSE
MAX_SCF_CYCLES 100
$end

$molecule
1 2
C	-1.481133	-1.211445	0.0
C	-2.878369	-1.221831	0.0
C	-0.747319	-0.004143	0.0
C	-3.595846	-0.020564	0.0
C	-2.891793	1.188615	0.0
C	-1.494461	1.195084	0.0
H	-0.988428	2.160976	0.0
H	-3.432896	2.137017	0.0
H	-4.687552	-0.02652	0.0
H	-0.962498	-2.170451	0.0
H	-3.408061	-2.176748	0.0
C	2.89129291689	-1.14794991721	-0.311613168158
C	1.49398307015	-1.15448501395	-0.311392153371
C	3.59551326568	0.0201615606213	0.000383130432998
C	0.747016	0.003728	0.0
C	1.4810319886	1.17005786083	0.311476870917
C	2.87825953733	1.18037068228	0.312268196523
H	3.43225719952	-2.06391166912	-0.557804454139
H	0.988109276823	-2.08713363817	-0.560577177989
H	3.408323477	2.10317022927	0.558780065196
H	0.962571579012	2.09621900829	0.560369278409
H	4.68721830547	0.0261260051159	0.000440520989821
$end
--------------------------------------------------------------

       Standard Nuclear Orientation (Angstroms)
    I     Atom         X            Y            Z
 ----------------------------------------------------
    1      C       1.487778    -1.192616    -0.156985
    2      C       2.885050    -1.195112    -0.157382
    3      C       0.747184     0.000241     0.000093
    4      C       3.595759    -0.000134    -0.000096
    5      C       2.884915     1.194750     0.157248
    6      C       1.487568     1.193361     0.157133
    7      H       0.976110     2.148150     0.282858
    8      H       3.420674     2.138045     0.281408
    9      H       4.687481     0.000056    -0.000124
   10      H       0.974546    -2.146298    -0.282514
   11      H       3.420106    -2.138887    -0.281658
   12      C      -2.884921    -1.194752     0.157249
   13      C      -1.487596    -1.193401     0.157136
   14      C      -3.595716     0.000139    -0.000095
   15      C      -0.747171    -0.000299     0.000095
   16      C      -1.487752     1.192592    -0.156987
   17      C      -2.885015     1.195118    -0.157384
   18      H      -3.420712    -2.138018     0.281408
   19      H      -0.976472    -2.147756     0.282804
   20      H      -3.420274     2.139225    -0.281704
   21      H      -0.974522     2.146197    -0.282508
   22      H      -4.687437    -0.000036    -0.000122
 ----------------------------------------------------

   18    -463.1435114452      8.61E-06 Convergence criterion met
 Total energy in the final basis set = -463.1435114452

                    Orbital Energies (a.u.)
 --------------------------------------------------------------

 Alpha MOs
 -- Occupied --
-10.116 -10.116 -10.093 -10.092 -10.088 -10.088 -10.087 -10.087
-10.078 -10.078 -10.078 -10.078  -0.976  -0.952  -0.889  -0.856
 -0.846  -0.837  -0.742  -0.736  -0.703  -0.696  -0.655  -0.617
 -0.595  -0.592  -0.563  -0.557  -0.553  -0.550  -0.535  -0.529
 -0.500  -0.491  -0.483  -0.474  -0.462  -0.442  -0.406  -0.401
 -0.391

 Beta MOs
 -- Occupied --
-10.114 -10.114 -10.090 -10.089 -10.087 -10.086 -10.086 -10.086
-10.078 -10.078 -10.078 -10.078  -0.971  -0.948  -0.883  -0.854
 -0.844  -0.830  -0.739  -0.734  -0.700  -0.693  -0.653  -0.615
 -0.593  -0.590  -0.561  -0.555  -0.551  -0.549  -0.534  -0.519
 -0.491  -0.490  -0.481  -0.473  -0.460  -0.428  -0.402  -0.397

          Ground-State Mulliken Net Atomic Charges

     Atom                 Charge (a.u.)    Spin (a.u.)
  --------------------------------------------------------
      1 C                    -0.164563       0.084490
      2 C                    -0.131981      -0.024426
      3 C                     0.167963       0.153119
      4 C                    -0.081139       0.248405
      5 C                    -0.132045      -0.024997
      6 C                    -0.165428       0.085239
      7 H                     0.187225      -0.004706
      8 H                     0.209404       0.000060
      9 H                     0.213140      -0.012180
     10 H                     0.187025      -0.004587
     11 H                     0.209462      -0.000011
     12 C                    -0.131692      -0.022925
     13 C                    -0.164903       0.085665
     14 C                    -0.079837       0.244859
     15 C                     0.168215       0.150564
     16 C                    -0.164429       0.085391
     17 C                    -0.131967      -0.022768
     18 H                     0.209282      -0.000096
     19 H                     0.186950      -0.004766
     20 H                     0.209448      -0.000122
     21 H                     0.186829      -0.004681
     22 H                     0.213042      -0.011527
  --------------------------------------------------------
  Sum of atomic charges =     1.000000

                    Cartesian Multipole Moments
 -----------------------------------------------------------------
    Charge (ESU x 10^10)
                 4.8032
    Dipole Moment (Debye)
         X      -0.0257      Y      -0.0020      Z      -0.0005
       Tot       0.0257
    Quadrupole Moments (Debye-Ang)
        XX     -17.0661     XY      -0.0003     YY     -50.1398
        XZ      -0.0005     YZ       0.0013     ZZ     -72.0961
    Octapole Moments (Debye-Ang^2)
       XXX      -0.2561    XXY      -0.0080    XYY       0.0115
       YYY      -0.0007    XXZ      -0.0069    XYZ       6.8628
       YYZ       0.0024    XZZ      -0.0021    YZZ      -0.0023
       ZZZ      -0.0004
    Hexadecapole Moments (Debye-Ang^3)
      XXXX   -1634.4304   XXXY       0.0132   XXYY    -393.7414
      XYYY      -0.0179   YYYY    -462.6902   XXXZ      -0.0019
      XXYZ       0.0048   XYYZ       0.0015   YYYZ       0.0107
      XXZZ    -466.5739   XYZZ      -0.0005   YYZZ    -115.3104

 Total job time:  331.14s(wall), 331.11s(cpu)
        *  Thank you very much for using Q-Chem.  Have a nice day.  *
