User input:
--------------------------------------------------------------
$comment
DFT(BP86)/TZ(d,p) SP  biphenyl
Angle: 0.0
$end

$rem
JOBTYPE SP
EXCHANGE B
CORRELATION P86
BASIS TZ(d,p)
UNRESTRICTED TRUE
PRINT_ORBITALS FALSE
MAX_SCF_CYCLES 100
$end

$molecule
1 2
C	-1.481133	-1.211445	0.0
C	-2.878369	-1.221831	0.0
C	-0.747319	-0.004143	0.0
C	-3.595846	-0.020564	0.0
C	-2.891793	1.188615	0.0
C	-1.494461	1.195084	0.0
H	-0.988428	2.160976	0.0
H	-3.432896	2.137017	0.0
H	-4.687552	-0.02652	0.0
H	-0.962498	-2.170451	0.0
H	-3.408061	-2.176748	0.0
C	2.891509	-1.188974	0.0
C	1.494199	-1.19548	0.0
C	3.595513	0.020212	0.0
C	0.747016	0.003728	0.0
C	1.480816	1.211064	0.0
C	2.878043	1.221481	0.0
H	3.432644	-2.137347	0.0
H	0.988498	-2.160934	0.0
H	3.407936	2.176734	0.0
H	0.962183	2.169992	0.0
H	4.687218	0.026184	0.0
$end
--------------------------------------------------------------

       Standard Nuclear Orientation (Angstroms)
    I     Atom         X            Y            Z
 ----------------------------------------------------
    1      C       1.487788    -1.202905     0.000000
    2      C       2.885060    -1.205419     0.000000
    3      C       0.747184     0.000244     0.000000
    4      C       3.595759    -0.000129     0.000000
    5      C       2.884905     1.205064     0.000000
    6      C       1.487559     1.203661     0.000000
    7      H       0.976092     2.166687     0.000000
    8      H       3.420657     2.156499     0.000000
    9      H       4.687481     0.000065     0.000000
   10      H       0.974564    -2.164817     0.000000
   11      H       3.420123    -2.157337     0.000000
   12      C      -2.884911    -1.205067     0.000000
   13      C      -1.487587    -1.203701     0.000000
   14      C      -3.595716     0.000134     0.000000
   15      C      -0.747171    -0.000303     0.000000
   16      C      -1.487761     1.202880     0.000000
   17      C      -2.885025     1.205426     0.000000
   18      H      -3.420695    -2.156473     0.000000
   19      H      -0.976455    -2.166291     0.000000
   20      H      -3.420291     2.157679     0.000000
   21      H      -0.974538     2.164715     0.000000
   22      H      -4.687437    -0.000044     0.000000
 ----------------------------------------------------

   18    -463.1436048621      7.53E-06 Convergence criterion met
 Total energy in the final basis set = -463.1436048621

             Orbital Energies (a.u.) and Symmetries
 --------------------------------------------------------------

 Alpha MOs, Unrestricted
 -- Occupied --
-10.116 -10.116 -10.093 -10.093 -10.088 -10.088 -10.088 -10.088
  1 A'    2 A'    3 A'    4 A'    5 A'    6 A'    7 A'    8 A'
-10.078 -10.078 -10.078 -10.078  -0.976  -0.952  -0.889  -0.856
  9 A'   10 A'   11 A'   12 A'   13 A'   14 A'   15 A'   16 A'
 -0.846  -0.837  -0.743  -0.737  -0.703  -0.696  -0.656  -0.617
 17 A'   18 A'   19 A'   20 A'   21 A'   22 A'   23 A'   24 A'
 -0.596  -0.593  -0.562  -0.556  -0.554  -0.552  -0.533  -0.533
 25 A'   26 A'   27 A'   28 A'   29 A'   30 A'    1 A"   31 A'
 -0.500  -0.491  -0.484  -0.475  -0.460  -0.443  -0.407  -0.401
  2 A"   32 A'   33 A'   34 A'   35 A'    3 A"    4 A"    5 A"
 -0.390
  6 A"

 Beta MOs, Unrestricted
 -- Occupied --
-10.114 -10.114 -10.089 -10.089 -10.087 -10.087 -10.087 -10.087
  1 A'    2 A'    3 A'    4 A'    5 A'    6 A'    7 A'    8 A'
-10.078 -10.078 -10.078 -10.078  -0.971  -0.948  -0.884  -0.854
  9 A'   10 A'   11 A'   12 A'   13 A'   14 A'   15 A'   16 A'
 -0.844  -0.830  -0.739  -0.735  -0.700  -0.693  -0.654  -0.615
 17 A'   18 A'   19 A'   20 A'   21 A'   22 A'   23 A'   24 A'
 -0.594  -0.592  -0.559  -0.554  -0.551  -0.551  -0.532  -0.522
 25 A'   26 A'   27 A'   28 A'   29 A'   30 A'   31 A'    1 A"
 -0.491  -0.489  -0.483  -0.474  -0.459  -0.430  -0.402  -0.397
  2 A"   32 A'   33 A'   34 A'   35 A'    3 A"    4 A"    5 A"

          Ground-State Mulliken Net Atomic Charges

     Atom                 Charge (a.u.)    Spin (a.u.)
  --------------------------------------------------------
      1 C                    -0.160133       0.087781
      2 C                    -0.132857      -0.026665
      3 C                     0.170234       0.150290
      4 C                    -0.080393       0.249055
      5 C                    -0.133095      -0.026132
      6 C                    -0.159558       0.087285
      7 H                     0.181938      -0.004871
      8 H                     0.209256       0.000014
      9 H                     0.213121      -0.012081
     10 H                     0.181850      -0.004876
     11 H                     0.209345       0.000114
     12 C                    -0.133403      -0.023492
     13 C                    -0.159459       0.085050
     14 C                    -0.079978       0.246384
     15 C                     0.170476       0.152031
     16 C                    -0.159842       0.084837
     17 C                    -0.132989      -0.023395
     18 H                     0.209292      -0.000224
     19 H                     0.181844      -0.004586
     20 H                     0.209434      -0.000238
     21 H                     0.181778      -0.004544
     22 H                     0.213142      -0.011738
  --------------------------------------------------------
  Sum of atomic charges =     1.000000

                    Cartesian Multipole Moments
 -----------------------------------------------------------------
    Charge (ESU x 10^10)
                 4.8032
    Dipole Moment (Debye)
         X      -0.0065      Y       0.0019      Z       0.0000
       Tot       0.0068
    Quadrupole Moments (Debye-Ang)
        XX     -17.0481     XY       0.0036     YY     -49.7886
        XZ       0.0000     YZ       0.0000     ZZ     -72.4914
    Octapole Moments (Debye-Ang^2)
       XXX      -0.0827    XXY       0.0123    XYY      -0.0035
       YYY       0.0024    XXZ       0.0001    XYZ       0.0000
       YYZ       0.0000    XZZ      -0.0027    YZZ      -0.0015
       ZZZ       0.0000
    Hexadecapole Moments (Debye-Ang^3)
      XXXX   -1634.0310   XXXY      -0.0668   XXYY    -392.5362
      XYYY      -0.0142   YYYY    -466.8486   XXXZ       0.0001
      XXYZ       0.0001   XYYZ       0.0000   YYYZ       0.0000
      XXZZ    -467.9132   XYZZ       0.0011   YYZZ    -118.0148

 Total job time:  334.10s(wall), 333.99s(cpu)
        *  Thank you very much for using Q-Chem.  Have a nice day.  *
