User input:
--------------------------------------------------------------
$comment
DFT(BP86)/TZ(d,p) SP  biphenyl
Angle: 85.0
$end

$rem
JOBTYPE SP
EXCHANGE B
CORRELATION P86
BASIS TZ(d,p)
UNRESTRICTED TRUE
PRINT_ORBITALS FALSE
MAX_SCF_CYCLES 100
$end

$molecule
1 2
C	-1.481133	-1.211445	0.0
C	-2.878369	-1.221831	0.0
C	-0.747319	-0.004143	0.0
C	-3.595846	-0.020564	0.0
C	-2.891793	1.188615	0.0
C	-1.494461	1.195084	0.0
H	-0.988428	2.160976	0.0
H	-3.432896	2.137017	0.0
H	-4.687552	-0.02652	0.0
H	-0.962498	-2.170451	0.0
H	-3.408061	-2.176748	0.0
C	2.88572015157	-0.089942261033	-1.1993993172
C	1.48841425737	-0.0972277603942	-1.19854863112
C	3.59552011743	0.0188607332724	0.00147466932304
C	0.747016	0.003728	0.0
C	1.48660231643	0.112512969199	1.19887470902
C	2.88384401691	0.12013903465	1.20192052187
H	3.42228164767	-0.170020641941	-2.14698976099
H	0.978084138688	-0.183828493222	-2.15766197716
H	3.41831647629	0.205966749111	2.15074488868
H	0.972592999155	0.193619736421	2.15686177153
H	4.68722618357	0.0246303219178	0.00169556561915
$end
--------------------------------------------------------------

       Standard Nuclear Orientation (Angstroms)
    I     Atom         X            Y            Z
 ----------------------------------------------------
    1      C      -1.487555    -0.886937     0.812523
    2      C      -2.884827    -0.888832     0.814578
    3      C      -0.747184     0.000158    -0.000481
    4      C      -3.595758    -0.000201     0.000498
    5      C      -2.885138     0.888402    -0.813879
    6      C      -1.487792     0.887408    -0.813287
    7      H      -0.976512     1.597456    -1.464012
    8      H      -3.421074     1.589873    -1.456506
    9      H      -4.687481    -0.000089     0.000645
   10      H      -0.974144    -1.596134     1.462234
   11      H      -3.419705    -1.590690     1.457804
   12      C       2.885133    -0.888365    -0.813926
   13      C       1.487808    -0.887399    -0.813339
   14      C       3.595716     0.000204     0.000487
   15      C       0.747171    -0.000201    -0.000492
   16      C       1.487540     0.886880     0.812566
   17      C       2.884803     0.888798     0.814621
   18      H       3.421091    -1.589784    -1.456575
   19      H       0.976853    -1.597094    -1.463795
   20      H       3.419894     1.590873     1.458099
   21      H       0.974141     1.595989     1.462265
   22      H       4.687437     0.000105     0.000629
 ----------------------------------------------------

   30    -463.1214332044      1.28E-06 Convergence criterion met
 Total energy in the final basis set = -463.1214332044

                    Orbital Energies (a.u.)
 --------------------------------------------------------------

 Alpha MOs
 -- Occupied --
-10.115 -10.115 -10.091 -10.091 -10.084 -10.084 -10.083 -10.083
-10.078 -10.078 -10.077 -10.077  -0.973  -0.950  -0.888  -0.848
 -0.847  -0.836  -0.741  -0.720  -0.717  -0.695  -0.648  -0.620
 -0.586  -0.584  -0.583  -0.560  -0.548  -0.539  -0.538  -0.507
 -0.506  -0.495  -0.471  -0.471  -0.468  -0.413  -0.411  -0.403
 -0.399

 Beta MOs
 -- Occupied --
-10.113 -10.112 -10.088 -10.088 -10.083 -10.083 -10.083 -10.083
-10.077 -10.077 -10.077 -10.077  -0.968  -0.946  -0.882  -0.847
 -0.846  -0.829  -0.737  -0.717  -0.714  -0.692  -0.647  -0.619
 -0.583  -0.581  -0.580  -0.559  -0.546  -0.538  -0.538  -0.499
 -0.497  -0.494  -0.469  -0.469  -0.466  -0.401  -0.399  -0.396

          Ground-State Mulliken Net Atomic Charges

     Atom                 Charge (a.u.)    Spin (a.u.)
  --------------------------------------------------------
      1 C                    -0.154551       0.031450
      2 C                    -0.115528       0.012178
      3 C                     0.070474       0.205546
      4 C                    -0.078701       0.222686
      5 C                    -0.114792       0.020520
      6 C                    -0.155556       0.022998
      7 H                     0.207281      -0.001699
      8 H                     0.210803      -0.000623
      9 H                     0.212594      -0.010658
     10 H                     0.207341      -0.002165
     11 H                     0.210781      -0.000158
     12 C                    -0.114827       0.020658
     13 C                    -0.155025       0.022887
     14 C                    -0.078838       0.222540
     15 C                     0.070323       0.205376
     16 C                    -0.154598       0.031598
     17 C                    -0.115900       0.012094
     18 H                     0.210785      -0.000623
     19 H                     0.207158      -0.001669
     20 H                     0.210864      -0.000127
     21 H                     0.207303      -0.002167
     22 H                     0.212609      -0.010643
  --------------------------------------------------------
  Sum of atomic charges =     1.000000

                    Cartesian Multipole Moments
 -----------------------------------------------------------------
    Charge (ESU x 10^10)
                 4.8032
    Dipole Moment (Debye)
         X      -0.0009      Y       0.0001      Z      -0.0013
       Tot       0.0016
    Quadrupole Moments (Debye-Ang)
        XX     -17.2999     XY      -0.0312     YY     -59.8823
        XZ      -0.0001     YZ      -0.0002     ZZ     -61.9391
    Octapole Moments (Debye-Ang^2)
       XXX      -0.0117    XXY       0.0008    XYY      -0.0002
       YYY      -0.0012    XXZ      -0.0947    XYZ      26.6262
       YYZ      -0.0054    XZZ       0.0018    YZZ       0.0012
       ZZZ      -0.0128
    Hexadecapole Moments (Debye-Ang^3)
      XXXX   -1639.9778   XXXY      -0.5046   XXYY    -425.2788
      XYYY      -0.0998   YYYY    -328.6462   XXXZ      -0.0001
      XXYZ       0.0098   XYYZ       0.0030   YYYZ      -0.0022
      XXZZ    -433.4141   XYZZ      -0.0123   YYZZ     -76.7451

 Total job time:  481.08s(wall), 481.26s(cpu)
        *  Thank you very much for using Q-Chem.  Have a nice day.  *
