User input:
--------------------------------------------------------------
$comment
DFT(BP86)/TZ(d,p) SP  biphenyl
Angle: 20.0
$end

$rem
JOBTYPE SP
EXCHANGE B
CORRELATION P86
BASIS TZ(d,p)
UNRESTRICTED TRUE
PRINT_ORBITALS FALSE
MAX_SCF_CYCLES 100
$end

$molecule
1 2
C	-1.481133	-1.211445	0.0
C	-2.878369	-1.221831	0.0
C	-0.747319	-0.004143	0.0
C	-3.595846	-0.020564	0.0
C	-2.891793	1.188615	0.0
C	-1.494461	1.195084	0.0
H	-0.988428	2.160976	0.0
H	-3.432896	2.137017	0.0
H	-4.687552	-0.02652	0.0
H	-0.962498	-2.170451	0.0
H	-3.408061	-2.176748	0.0
C	2.89112655768	-1.11636607885	-0.411785695266
C	1.49381682893	-1.12292357675	-0.411493632103
C	3.59551347022	0.020122728085	0.000506293211748
C	0.747016	0.003728	0.0
C	1.48119827504	1.13848783701	0.411605583319
C	2.87842624624	1.14872045293	0.412651291903
H	3.43195940752	-2.00737488726	-0.737118704989
H	0.987810004563	-2.03031582434	-0.740782760731
H	3.40862178984	2.04653456346	0.738407940227
H	0.962870740282	2.03942226631	0.740508028847
H	4.68721854065	0.0260813557071	0.000582132787086
$end
--------------------------------------------------------------

       Standard Nuclear Orientation (Angstroms)
    I     Atom         X            Y            Z
 ----------------------------------------------------
    1      C       1.487771    -1.184634    -0.208848
    2      C       2.885043    -1.187115    -0.209376
    3      C       0.747184     0.000239     0.000124
    4      C       3.595759    -0.000138    -0.000127
    5      C       2.884922     1.186748     0.209198
    6      C       1.487576     1.185371     0.209045
    7      H       0.976123     2.133768     0.376306
    8      H       3.420687     2.123728     0.374377
    9      H       4.687481     0.000050    -0.000165
   10      H       0.974533    -2.131932    -0.375849
   11      H       3.420093    -2.124572    -0.374709
   12      C      -2.884928    -1.186751     0.209200
   13      C      -1.487603    -1.185410     0.209049
   14      C      -3.595716     0.000142    -0.000126
   15      C      -0.747171    -0.000296     0.000126
   16      C      -1.487745     1.184610    -0.208851
   17      C      -2.885008     1.187121    -0.209379
   18      H      -3.420724    -2.123701     0.374378
   19      H      -0.976485    -2.133377     0.376234
   20      H      -3.420261     2.124908    -0.374770
   21      H      -0.974509     2.131830    -0.375841
   22      H      -4.687437    -0.000030    -0.000162
 ----------------------------------------------------

   19    -463.1433794982      7.93E-06 Convergence criterion met
 Total energy in the final basis set = -463.1433794982

                    Orbital Energies (a.u.)
 --------------------------------------------------------------

 Alpha MOs
 -- Occupied --
-10.116 -10.116 -10.092 -10.092 -10.087 -10.087 -10.087 -10.087
-10.078 -10.078 -10.078 -10.078  -0.975  -0.952  -0.889  -0.855
 -0.846  -0.837  -0.742  -0.736  -0.704  -0.696  -0.654  -0.617
 -0.595  -0.591  -0.564  -0.557  -0.553  -0.549  -0.536  -0.527
 -0.500  -0.492  -0.482  -0.474  -0.462  -0.441  -0.406  -0.401
 -0.391

 Beta MOs
 -- Occupied --
-10.114 -10.114 -10.089 -10.089 -10.086 -10.086 -10.086 -10.086
-10.078 -10.078 -10.078 -10.078  -0.971  -0.948  -0.883  -0.853
 -0.844  -0.830  -0.739  -0.733  -0.701  -0.693  -0.653  -0.616
 -0.593  -0.589  -0.562  -0.555  -0.550  -0.548  -0.534  -0.518
 -0.491  -0.490  -0.481  -0.473  -0.461  -0.427  -0.401  -0.397

          Ground-State Mulliken Net Atomic Charges

     Atom                 Charge (a.u.)    Spin (a.u.)
  --------------------------------------------------------
      1 C                    -0.168038       0.086463
      2 C                    -0.130666      -0.024497
      3 C                     0.164566       0.151383
      4 C                    -0.080030       0.246520
      5 C                    -0.131256      -0.021891
      6 C                    -0.167254       0.083366
      7 H                     0.190565      -0.004583
      8 H                     0.209425      -0.000219
      9 H                     0.213022      -0.011845
     10 H                     0.190481      -0.004878
     11 H                     0.209461       0.000131
     12 C                    -0.130957      -0.023515
     13 C                    -0.167695       0.084654
     14 C                    -0.080417       0.246625
     15 C                     0.164310       0.152757
     16 C                    -0.167176       0.082623
     17 C                    -0.131376      -0.021837
     18 H                     0.209417       0.000009
     19 H                     0.190528      -0.004674
     20 H                     0.209572      -0.000190
     21 H                     0.190460      -0.004427
     22 H                     0.213057      -0.011976
  --------------------------------------------------------
  Sum of atomic charges =     1.000000

                    Cartesian Multipole Moments
 -----------------------------------------------------------------
    Charge (ESU x 10^10)
                 4.8032
    Dipole Moment (Debye)
         X       0.0077      Y       0.0011      Z       0.0002
       Tot       0.0078
    Quadrupole Moments (Debye-Ang)
        XX     -17.0744     XY       0.0041     YY     -50.4170
        XZ      -0.0008     YZ      -0.0004     ZZ     -71.7935
    Octapole Moments (Debye-Ang^2)
       XXX       0.0892    XXY      -0.0123    XYY      -0.0045
       YYY       0.0035    XXZ      -0.0085    XYZ       9.0813
       YYZ       0.0033    XZZ       0.0016    YZZ      -0.0014
       ZZZ       0.0002
    Hexadecapole Moments (Debye-Ang^3)
      XXXX   -1634.6600   XXXY      -0.0042   XXYY    -394.6807
      XYYY      -0.0108   YYYY    -459.4635   XXXZ      -0.0109
      XXYZ      -0.0040   XYYZ       0.0019   YYYZ      -0.0019
      XXZZ    -465.5675   XYZZ       0.0002   YYZZ    -113.2847

 Total job time:  343.41s(wall), 343.53s(cpu)
        *  Thank you very much for using Q-Chem.  Have a nice day.  *
